45
 energy: -80.358884678899 gnorm: 0.000711599421 xtb: 6.5.1 (b24c23e)
Si           0.17053039674237       -0.94991577479351       -0.22699081873205
O            0.97631541638496        0.44480504601847        0.02753336945571
C            2.07545571058031        0.72555103532661        0.85982318450043
C            3.36617701126512        0.22276721977256        0.26656026134300
H            1.91588137731387        0.25199826039389        1.83538590514531
C            3.53923080416525        0.18065764441374       -1.10911056282680
C            4.39964187534081       -0.19022713905074        1.09610937420811
C            4.72779957794755       -0.27472634291843       -1.65078042847011
H            2.72950211386793        0.48420882937047       -1.75583767498747
C            5.59045859051648       -0.63812623304387        0.55431461982008
H            4.26206498517256       -0.17328874563918        2.16739665596117
C            5.75697431469066       -0.68125762463077       -0.81984021152162
H            4.84789788570642       -0.31492619595835       -2.72335956501928
H            6.38751954691982       -0.96384906397652        1.20630464038275
H            6.68457328726866       -1.03896133477366       -1.24193540972896
C            2.12873847774621        2.25554485779945        1.04043460334477
C            0.90921254663096        2.73496612792781        1.65309777233047
H            2.98652577166495        2.50831570771985        1.66771512334343
H            2.25604347654684        2.72425083766292        0.06093311239512
C           -0.12658316712452        3.07817134349046        2.14463271225031
H           -1.01801965985915        3.40020241081069        2.59328589372937
Cl           0.53503706429676       -2.21244994954240       -1.79550433991143
Cl           1.17138299894626       -2.13506568262027        1.24225682553366
O           -1.23001291156234       -1.14525599865438        0.74483389090105
O           -0.86819543436044       -0.02708983091979       -1.43013828257103
C           -3.20760241327409       -0.01053536149391        0.01161320083903
C           -2.54376256656872        1.19080411021252       -0.34206809847575
C           -0.69377551644891        2.26337376842276       -1.37887575473770
C           -3.13086615362468       -2.37020869341148        0.38162239146546
C           -4.48284771173464       -2.48698096807526        0.28638436576710
C           -4.61921382589593       -0.10871832855910        0.01584565443575
C           -5.25478313987752       -1.30763199436842        0.14617435187166
C           -3.07591462766350        2.47158204641317       -0.06347070524133
C           -2.41360703306618        3.60951230501864       -0.42179775282662
C           -1.18033455615542        3.50805165747130       -1.09534770756369
H           -5.18562412616549        0.79230048917373       -0.15576309889752
H           -6.33030829956346       -1.36788263510367        0.11771295908280
H           -4.00069689982133        2.52538078476823        0.48771038396613
H           -2.81776389633560        4.57976808502321       -0.18178862692635
H           -0.62804841971611        4.38616014399193       -1.37990331577738
H            0.23138519259090        2.08754395550326       -1.90282428668417
N           -2.51918319218943       -1.17496271948684        0.30992940239405
N           -1.35811921618284        1.15668580130986       -1.03856378493936
H           -2.46751537485502       -3.20284821938448        0.55762264886682
H           -4.95081628026029       -3.45435863161207        0.33490012250356
