45
 energy: -80.356695298919 gnorm: 0.000211130452 xtb: 6.5.1 (b24c23e)
Si          -0.60050397433798        1.24290865361285        0.89078005829651
O            0.74329841611309        1.85492548696495        0.23000505726202
C            1.35786512650008        1.61808265414131       -1.02068233261919
C            2.25975269198946        0.41620695454346       -0.90284725562789
H            0.58581883638129        1.42905328727996       -1.77151972261631
C            3.23403403403014        0.38001671837319        0.08780453232242
C            2.11109857997054       -0.67531669621971       -1.74653321022676
C            4.06320426614857       -0.71955128095430        0.21378646170432
H            3.32958986663607        1.21545712763953        0.76481105367975
C            2.93622059261976       -1.77909045256219       -1.61543897106818
H            1.34494000780311       -0.65822829036371       -2.50822527159192
C            3.91855309800170       -1.80002053292001       -0.64054876329033
H            4.82427565742940       -0.73359409423436        0.98013811999818
H            2.81286901046333       -2.62386644353926       -2.27739218985856
H            4.56828743893813       -2.65756831544685       -0.54586194873974
C            2.14430314085003        2.88106924476468       -1.41006379943962
C            1.23752747628066        3.94594495754926       -1.78214693596128
H            2.80574555956728        2.64620896984784       -2.24872691032186
H            2.74583799012742        3.20034394311441       -0.55663320045186
C            0.45026605715386        4.79267736612658       -2.08918634852319
H           -0.22378758091635        5.55274604779806       -2.34946289876573
Cl          -0.14806226367462        2.14169832146439        2.73525625037250
Cl          -2.47551205362978        2.09391507495265        0.73384333330137
O           -0.92847842235127        0.28170526460548       -0.70916723398482
O           -0.60948610321334       -0.29622005422966        1.66905722689466
C           -1.81775153186228       -1.85296252582604       -0.39113899170450
C           -0.64969359365155       -2.25504898850119        0.30345943225527
C            1.19830203045443       -1.70902012154341        1.71755880853824
C           -3.09236636723879       -0.10789222539630       -1.38923179264334
C           -4.13174831459346       -0.95336405384307       -1.66137083183885
C           -2.86057619036140       -2.74947643607844       -0.71792318689611
C           -4.00030248096143       -2.31704369928513       -1.33264199744768
C           -0.07614208590706       -3.53613169387186        0.13460111098359
C            1.11408532188584       -3.87062835788087        0.70806497212072
C            1.79030946402911       -2.91488474529594        1.50485164701330
H           -2.75544281920948       -3.77868733905606       -0.41579851041078
H           -4.80101997972322       -3.00498097474358       -1.55099307803306
H           -0.58505100548980       -4.23007909097915       -0.51483242539409
H            1.55024544557951       -4.84266438925155        0.54683140037600
H            2.74574935421603       -3.13615302909079        1.94590355479770
H            1.61200652394704       -0.93996350140062        2.35074069647011
N           -1.97163487414021       -0.54760756697473       -0.80666610489746
N            0.00716517989388       -1.40511119057298        1.17637279889281
H           -3.10044822926096        0.94253608818408       -1.63133347363785
H           -5.02585229648483       -0.57534507089371       -2.12489012928704
