45
 energy: -80.350449951551 gnorm: 0.000753782201 xtb: 6.5.1 (b24c23e)
Si           0.02323038922250       -0.23726983688581       -0.10513786253687
O            1.56929228420361       -0.68902386338754       -0.17608270074276
C            2.67300157312224       -0.58524091338816        0.68802529273525
C            3.88381425216567       -0.12870786825079       -0.08396100692522
H            2.45089317725818        0.12849340790241        1.48938653238421
C            4.01823823359015       -0.43279950681869       -1.43154715912242
C            4.89149799457710        0.57741739060167        0.56046603134418
C            5.14423986395421       -0.02944073539254       -2.12734932497202
H            3.22761913893219       -0.97284360546157       -1.92929859647242
C            6.01995996753455        0.97291921748001       -0.13495489389990
H            4.78635779795996        0.82031428909369        1.60853474456772
C            6.14805745509334        0.67101309313787       -1.48062455689038
H            5.23811578908761       -0.26399522415022       -3.17758454647637
H            6.79923490897044        1.52217772633167        0.37320377218277
H            7.02771031694299        0.98441435816750       -2.02369794513837
C            2.93120851544528       -1.97467242218889        1.30746442779188
C            1.80574995179033       -2.37707785065298        2.12183045296313
H            3.83949326602170       -1.93312494959783        1.91358419970861
H            3.07318798955711       -2.69399900963388        0.49657575518119
C            0.84081832357076       -2.66149477747411        2.76980808735041
H            0.00689121743708       -2.91910884359140        3.35104066244578
Cl           0.23153008620731        0.94413044665597        1.72889354117151
Cl          -0.24908726308598       -1.44221481797868       -1.86891898464814
O           -0.67098796583885        1.07526815210315       -0.97106560767553
O           -1.41739962171224       -0.83732804811135        0.63440806231564
C           -2.89260280874187        1.41082954136480       -0.23211048857812
C           -3.28417994917333        0.06494695823160       -0.48916162515171
C           -2.82771088715618       -2.27987781121584       -0.48225523506472
C           -1.20949754755698        3.09001809717797        0.00813760841204
C           -2.10903170516217        4.01224162786897        0.45190347684612
C           -3.84112814047813        2.38024158607119        0.16527232022967
C           -3.47358680378890        3.65066620483134        0.50437620581730
C           -4.52173970309485       -0.22940572808552       -1.10377007370177
C           -4.87971080619302       -1.50829439617522       -1.42145834173816
C           -3.99582231913447       -2.56797103364740       -1.12267269019984
H           -4.86836025730453        2.06700503640539        0.26051026264000
H           -4.20889130479258        4.36505185810458        0.83684727531256
H           -5.15453449234628        0.59831139900460       -1.38088926404776
H           -5.81331758970856       -1.70844022024261       -1.92141410556978
H           -4.22910766386381       -3.58170274798956       -1.39632429156519
H           -2.09814456443663       -3.02167685993204       -0.20141274748684
N           -1.59532259356202        1.86409722327823       -0.36983977713599
N           -2.51753785832902       -1.02524241041396       -0.13194626695255
H           -0.15278408338328        3.28053659438287       -0.08757667900847
H           -1.77955856380416        4.99068827246995        0.75385406029898
