45
 energy: -80.355822117920 gnorm: 0.000337671504 xtb: 6.5.1 (b24c23e)
Si           0.47742120954814       -1.04403107258616        0.28634299045898
O           -0.78457876777526       -1.10121425660915       -0.71634171132962
C           -2.06081301742923       -1.67487726712833       -0.58125120801061
C           -3.09458569535583       -0.58187165359041       -0.47049730977868
H           -2.08874064810867       -2.29952043603270        0.32020128299939
C           -2.87889511403203        0.64789454415069       -1.07837763424078
C           -4.27024174838124       -0.79398662035605        0.23773221405953
C           -3.82221736277527        1.65489563667427       -0.97370285352818
H           -1.96047753284576        0.80805527025672       -1.62315758136561
C           -5.21676304097407        0.21058139116779        0.33413873739119
H           -4.43689925834084       -1.74656384715141        0.71917834762535
C           -4.99407741827468        1.43745122834913       -0.26929496205949
H           -3.64286387550602        2.61001076127623       -1.44636180351540
H           -6.12859011007671        0.03775915126154        0.88663242856845
H           -5.73261511178167        2.22172745343229       -0.18952087121125
C           -2.32801415406451       -2.55781215293337       -1.81499507340491
C           -1.39787072951224       -3.66635916674669       -1.84155306231721
H           -3.35489200285476       -2.92965739979229       -1.77422631513149
H           -2.20116814379049       -1.95001103923966       -2.71436870712169
C           -0.59990476851657       -4.55721400556192       -1.81749480924044
H            0.09083474307684       -5.34616037231881       -1.80642471904285
Cl          -0.37062244225194       -2.02112528391192        2.00314022444151
Cl           2.04451365579107       -2.39007394783842        0.18668378252068
O            1.23396100083530       -0.04234155547841       -1.05310828934754
O            0.62489533658704        0.34743871905379        1.29962565373564
C            2.52146194655300        1.75354962871953       -0.28418820266788
C            1.36419531869414        2.36033901773391        0.26356883040456
C           -0.84168289893354        2.11140371318116        1.14742124306711
C            3.51617978846479       -0.12355090857239       -1.35685586504450
C            4.75427331622414        0.45569950269419       -1.33502752929801
C            3.78602301989615        2.38453995069389       -0.29904183707128
C            4.88668624485138        1.75419146535364       -0.80372777139999
C            1.13269384299929        3.75407984575315        0.20445161003924
C           -0.06923451880296        4.29276989090897        0.55810580892263
C           -1.10832094693625        3.43812195687470        1.00105699515208
H            3.86860512530877        3.36151935832644        0.14869236418818
H            5.85125748902161        2.23518608813217       -0.78603694681354
H            1.91732186156214        4.37783668274758       -0.19236811892232
H           -0.24148212935500        5.35381356727094        0.48109983020804
H           -2.08486278483555        3.82344813504631        1.23572248208050
H           -1.55111066996107        1.39779062950186        1.53666487408052
N            2.44125135746267        0.50946557803707       -0.87478074547394
N            0.36469042354534        1.60403211237428        0.84872327958876
H            3.32250670662798       -1.10161274298279       -1.76607857312746
H            5.60429650442546       -0.07541355014257       -1.72560647907038
