45
 energy: -80.358798061691 gnorm: 0.000732479446 xtb: 6.5.1 (b24c23e)
Si           0.26624367429981       -0.93382293719497       -0.65723086623875
O            1.08738958128922        0.35454359614175       -0.08997224822418
C            2.16303337881400        0.44328351794335        0.81025536389064
C            3.48719310476541        0.21839033471769        0.12508791465872
H            2.03394376865100       -0.30555937691524        1.60059059827059
C            3.63559219512370        0.45759056175732       -1.23286900564382
C            4.58107573718756       -0.21488176060133        0.86325253637393
C            4.85905421259911        0.26001839912969       -1.84846255415622
H            2.78291645924547        0.77824395059305       -1.81220776898537
C            5.80553275497839       -0.40392093966560        0.24947484899937
H            4.46572509130670       -0.41620998125336        1.91856753988734
C            5.94720228489720       -0.16691812031397       -1.10796591271574
H            4.96001624355660        0.43774630445097       -2.90898316385911
H            6.65009729411639       -0.74527216032355        0.83005437362942
H            6.90233806567532       -0.32211370275876       -1.58795130844457
C            2.11747798625507        1.85311952408198        1.43434549500398
C            0.85070814891987        2.06858237102747        2.09885065311714
H            2.93681657078368        1.95169372380117        2.14957872184489
H            2.24681722246330        2.59689384133283        0.64311377492289
C           -0.22372216037163        2.19805709599034        2.60963458009321
H           -1.14857355539239        2.32447019462282        3.08717892651301
Cl           0.64336629349046       -1.81060267445399       -2.46600128649333
Cl           1.22389136333519       -2.43578294019556        0.51960991573782
O           -1.15736179893118       -1.32664925866737        0.21587608036988
O           -0.74272386664251        0.26086612715943       -1.63350087726247
C           -3.11162774992891       -0.03157828122318       -0.27530739100301
C           -2.43177521456902        1.21108243234688       -0.32389466507215
C           -0.54590427145609        2.47047158722141       -1.03425655357645
C           -3.05608273801105       -2.41323063587270       -0.46392545189642
C           -4.40603257165532       -2.48996358070228       -0.61272143965195
C           -4.52339092262457       -0.11271082287005       -0.32465357743041
C           -5.16832358939916       -1.30214013494934       -0.49115533557508
C           -2.96068344020560        2.39747513085796        0.23587236260403
C           -2.27869491562552        3.57780409959262        0.17358883641285
C           -1.02845662921305        3.61948392333759       -0.47425265503013
H           -5.08058855067452        0.80986017403183       -0.29434565587675
H           -6.24341687196441       -1.34269520185425       -0.55675323454398
H           -3.89989037387558        2.33376788550050        0.76066125153707
H           -2.68076685648121        4.46973248139142        0.62636952787085
H           -0.46060834551515        4.53153670676202       -0.52893494201074
H            0.39085822800884        2.41028766247079       -1.56377447267606
N           -2.43640107630165       -1.24063214922826       -0.24216113528061
N           -1.22938729316343        1.32497419054583       -0.98242700558474
H           -2.40173927084145       -3.27127182614495       -0.47266315384005
H           -4.88034459691776       -3.43699933161971       -0.80102064066642
