45
 energy: -80.355566843294 gnorm: 0.000961221228 xtb: 6.5.1 (b24c23e)
Si           0.27687199164271       -0.13277498791860        1.15944193017674
O            1.27841365362779       -0.90310334836321        0.15380753251457
C            1.91501424122437       -0.50722101699547       -1.03758128048452
C            3.35026282309914       -0.12688943741211       -0.76850220850140
H            1.38138626736220        0.34603187066779       -1.46778111291617
C            4.01980300266360       -0.62634497365728        0.33921986866733
C            4.01763653719013        0.71813281239231       -1.64662431804550
C            5.34016601723165       -0.28059766961302        0.56797076327781
H            3.49478525908260       -1.27240546818259        1.02596055809187
C            5.33916764962524        1.05691223858285       -1.42009352905684
H            3.49588720040425        1.11430049940072       -2.50727937985134
C            6.00312343494446        0.55802168717250       -0.31141776296835
H            5.85143467573590       -0.66804217553674        1.43660550984850
H            5.85033174557458        1.71611536576179       -2.10694750400394
H            7.03383124008168        0.82671868131431       -0.13252861464101
C            1.84682750217250       -1.69355199299010       -2.01966570351671
C            0.49893558064863       -1.86884072587722       -2.51282133641893
H            2.52478966799582       -1.50973983946904       -2.85680354414945
H            2.16834761088306       -2.59421603575828       -1.49123291290205
C           -0.63205130346762       -1.95366660174874       -2.89502499054863
H           -1.61010546008017       -2.06817563696994       -3.25600196077096
Cl           0.76553372411942        1.57143307076392        2.23027820534100
Cl           0.72989036286235       -1.45760372402385        2.73499581894917
O           -0.30608020714745        0.96631620247554       -0.26630494678376
O           -1.35177575805393       -0.66177318020547        1.26893627720062
C           -2.59601390928208        1.44242871314199       -0.20928110175750
C           -2.90895993156920        0.07162844903970       -0.38464191346781
C           -2.30085964052055       -2.22419752854956       -0.11653134873619
C           -0.95778542207453        3.12956755372423        0.15816933237907
C           -1.90698291395907        4.11094989050439        0.22595060322017
C           -3.58330125805792        2.45439652360208       -0.19165140120334
C           -3.25736016653103        3.76145962960626        0.02868895308477
C           -3.99035448214767       -0.36040354371165       -1.18732679939318
C           -4.18942129517806       -1.67901338103900       -1.47188795853904
C           -3.29081037477529       -2.64271719048161       -0.95123828741198
H           -4.61348008368959        2.15762873081744       -0.30222686424315
H           -4.02321719308061        4.51911015405133        0.06758249533521
H           -4.62627550126556        0.39414979937611       -1.62158197444331
H           -5.00448461502048       -1.98918728789860       -2.10554962982496
H           -3.38860655807005       -3.68537152702060       -1.19821056226056
H           -1.60386560593100       -2.88853122970763        0.36950494770673
N           -1.28658041179658        1.85414648083133       -0.07567528184235
N           -2.15338891492361       -0.92817522098651        0.20163751405886
H            0.09767472702048        3.31520873178231        0.27507139115759
H           -1.61671690855561        5.12814863910412        0.42139952767127
