45
 energy: -80.358293796509 gnorm: 0.000454052934 xtb: 6.5.1 (b24c23e)
Si           0.46911517862536       -1.36573254966507        0.07530759176558
O           -0.84935365367898       -0.97650487877996        0.95271332138730
C           -2.20481055439960       -1.31793488013946        0.77824301171076
C           -2.80769303710840       -0.53206179659304       -0.35776580105243
H           -2.27897450826672       -2.39101850086079        0.56917765154150
C           -2.51056578734553        0.81755049599937       -0.49336459036416
C           -3.65170138730236       -1.13838804183853       -1.27637094718439
C           -3.04275916224721        1.55027920825319       -1.53821491996786
H           -1.84843315379316        1.29142538154078        0.21837455998769
C           -4.19031248570149       -0.40303924263200       -2.31705231008511
H           -3.87045680168250       -2.19149968285447       -1.18437450299653
C           -3.88615015467979        0.94100205674296       -2.45131754444380
H           -2.79919050308483        2.59848996445390       -1.63904660089806
H           -4.84145221856038       -0.88365010158471       -3.03202552099794
H           -4.30122620631449        1.51200000541270       -3.26894347393695
C           -2.93665151411187       -0.99442544703498        2.09490841069213
C           -2.31215762110525       -1.67360865199742        3.20986576813197
H           -3.98002008772908       -1.30555241666845        2.00323727409156
H           -2.90381416540324        0.08610331196872        2.26305846249263
C           -1.74720000645838       -2.22974978984604        4.10622489947576
H           -1.27400615383536       -2.73092115417912        4.89694391368889
Cl           1.84411380601535       -2.77896259331835        0.61174570077349
Cl          -0.51308547981521       -2.55218181101437       -1.40232923575539
O            0.82178193615077       -0.27078318297753       -1.20392153845773
O            1.42179235659008       -0.26136781229293        1.19640771626389
C            1.98463734344272        1.73107780134986       -0.59780772595327
C            1.20420145342871        1.97663134450418        0.56020507431537
C            0.12985050957169        1.12123426043581        2.50412980246261
C            2.82475985419793        0.19053918191552       -2.21904423087090
C            3.79534099880213        1.05563478331467       -2.62006087066532
C            2.92406418264581        2.67234978511316       -1.07883508805107
C            3.81466258188372        2.35716949637544       -2.06200737487291
C            0.73516853968224        3.26302602738894        0.91344467985258
C           -0.03912335426612        3.45522754569267        2.02123831192111
C           -0.36464223975434        2.35187765010375        2.83688346539133
H            2.96212012200289        3.63533382311539       -0.59551201187454
H            4.54456847981753        3.07589911113170       -2.39641360602210
H            0.95948656935718        4.08317051532265        0.25099576393849
H           -0.41596929915005        4.43562103366945        2.26449240761025
H           -0.98619643189621        2.46728811645719        3.70779950222695
H           -0.06206430285370        0.22314622373788        3.07055695011614
N            1.91618284242997        0.53342380944507       -1.28961148866417
N            0.90295323415197        0.95067664577387        1.42814572227501
H            2.69142217267032       -0.79659235509101       -2.63392654797484
H            4.51944610908683        0.75706231014561       -3.35748703102337
