51
 energy: -86.691488989214 gnorm: 0.000742200868 xtb: 6.5.1 (b24c23e)
Si           0.61714712616688        0.22983121846268        0.67651373556908
O            1.30846578068258       -0.65493851913768       -0.48928279687884
C            2.54039650760130       -1.33650053357292       -0.45746176225304
C            3.69986163930730       -0.37392263896296       -0.44398923958146
H            2.57989778388436       -1.95933383134791        0.44548294274444
C            3.60737261768808        0.84112730191679       -1.10766658237156
C            4.87042602284258       -0.69791544944243        0.22793538390159
C            4.66898153371959        1.72747829498355       -1.08998592375788
H            2.68957812175505        1.09218771718714       -1.61791850437022
C            5.93525663183595        0.18490932906686        0.23590771670941
H            4.93968557845589       -1.63846661681689        0.75481234800797
C            5.83550940074732        1.39990938281779       -0.42050145849965
H            4.58461667669007        2.67691811038519       -1.59788280520795
H            6.84153254358428       -0.07195323851287        0.76461290109889
H            6.66387826463486        2.09261763253450       -0.40448697374404
C            2.60141165559176       -2.23262910697966       -1.70775963172542
C            1.61140098459072       -3.28473829310800       -1.64002272852351
H            3.60043836500419       -2.67027607457499       -1.78286838262051
H            2.41571686241524       -1.61095745144462       -2.58712809938420
C            0.78036442458904       -4.14055377912322       -1.54514283142639
H            0.06971661623508       -4.90880706121831       -1.48181700972817
Cl           1.28388919529903        2.07831259528137        1.34179797715718
Cl           1.48402184322373       -0.77101838655892        2.38549107202288
O           -0.26834869178091        1.04225813500773       -0.71954986143726
O           -0.91544312751802       -0.34267392996237        1.22121295722491
C           -2.54522208891029        1.30875545957726       -0.22550294631492
C           -2.66849179711872       -0.11289305809612       -0.35758354886405
C           -1.66852620750466       -2.23489735547508        0.14185358202051
C           -1.06373046315245        3.17517374624583       -0.35564966088675
C           -2.07863854715398        4.05059238179322       -0.09116585792543
C           -3.59773437959463        2.18586282018209        0.12117016357131
C           -3.36104157770698        3.54005935305154        0.17579155739541
C           -3.58934224224490       -0.76814896512795       -1.20510708648544
C           -3.54498463045025       -2.13788797985732       -1.32794443689345
C           -2.56373351939552       -2.88885169904914       -0.64674453837686
H           -4.15550060524702        4.21014721052892        0.46428862387622
H           -4.22788988412254       -2.63643705306202       -1.99725190619423
H           -2.50521518220098       -3.95571134762372       -0.76966400207016
H           -0.86531096675643       -2.71430299786096        0.67732596797980
N           -1.29226799079841        1.85984094194436       -0.42517104429543
N           -1.75664985042940       -0.90824537651782        0.31465888335260
H           -0.04197323807485        3.47447207840099       -0.51788621052158
H           -1.88344979313000        5.10780349495894       -0.05115605226113
C           -4.93429256699231        1.65718994688373        0.54650828683706
H           -5.69624389114021        1.87886807732719       -0.19869853055239
H           -4.90170348070004        0.58525200716274        0.71378507754315
H           -5.23224194599708        2.14489541578317        1.47285469987476
C           -4.53776974647421        0.00729256880862       -2.06840410649771
H           -4.55937410705704       -0.43161742899361       -3.06366326836061
H           -5.54918694431071       -0.03837135630570       -1.66833087375360
H           -4.23908571059373        1.04742530842535       -2.15209521512905
