51
 energy: -86.691297540137 gnorm: 0.000695677816 xtb: 6.5.1 (b24c23e)
Si           0.70259990069973        0.23831077295297       -1.21273540940528
O            1.40932351413488        0.81926350339419        0.12269217115257
C            2.68920291832759        1.38767691725297        0.27749209628036
C            3.77872514586148        0.39652806841382       -0.03849162219841
H            2.77885783127453        2.24914937300195       -0.39661375331274
C            3.62700321020583       -0.93617103075105        0.31785225320899
C            4.93688957012800        0.80303182197426       -0.68518671036287
C            4.61679083172710       -1.85486180675028        0.02002415219803
H            2.71757841892169       -1.24954068076337        0.80864625986851
C            5.93037817868981       -0.11515978292951       -0.97447222687145
H            5.05126861318889        1.83690270757998       -0.97633298728157
C            5.77132656264285       -1.44526384623377       -0.62471471799642
H            4.48484568149868       -2.89272654422146        0.28819869515639
H            6.82607286508737        0.20702734983392       -1.48486367431615
H            6.54302439260966       -2.16313657235344       -0.86118448948933
C            2.80108744786522        1.85882189800667        1.73861945211868
C            1.79679201125010        2.85460231657109        2.04081315913344
H            3.79922524305493        2.27216478236481        1.90326623395017
H            2.65899952346117        0.99510518954314        2.39256325372942
C            0.94502467714802        3.66577861116660        2.26061711219081
H            0.21614949432031        4.38736781237715        2.47784685726411
Cl           1.94167958612253        1.25930635607007       -2.67023949830393
Cl           1.06284054942345       -1.60042692423392       -2.09186980857696
O           -0.45249338169843       -0.53845161094869       -0.01494455718392
O           -0.64136138585407        1.14173889181452       -1.81711509963169
C           -2.68893589686693       -0.21798231965972       -0.63478918125896
C           -2.49801027833232        1.17275866968803       -0.34491146204509
C           -1.06259255020694        3.07179844405602       -0.63076837234302
C           -1.65831467208428       -2.36883495980472       -0.73380117194354
C           -2.82320270004298       -2.95185529985702       -1.14524042724246
C           -3.89096990372401       -0.78586428585989       -1.11352699025935
C           -3.95196176641052       -2.13957975598821       -1.35268028496369
C           -3.29313240372838        1.93325744622910        0.54059008562607
C           -2.97596529839414        3.25039443408183        0.78129180213311
C           -1.84147116224404        3.83688118272150        0.18113093246889
H           -4.85961914568863       -2.57269247341734       -1.74257855085441
H           -3.56779521663125        3.82336967965456        1.47740791226470
H           -1.57596097080856        4.86023398030889        0.38099603364429
H           -0.15881368649119        3.41653952539496       -1.10609775353652
N           -1.60165357088662       -1.05814589445287       -0.47595804343449
N           -1.40691346523227        1.80765492249380       -0.91254774377273
H           -0.73498974335784       -2.90595737020051       -0.59492351119721
H           -2.85886708205831       -4.00952532738329       -1.33918256173747
C           -5.06156633771455        0.07597483459439       -1.47871557001680
H           -5.87585402634543       -0.05244154037490       -0.76778734675204
H           -4.78540005679614        1.12500772840511       -1.51584574593097
H           -5.43279799309338       -0.22122229131871       -2.45765084965480
C           -4.40837389736348        1.30032613708085        1.31641252553689
H           -4.35724757735303        1.62989949018269        2.35208609191097
H           -5.37625797145615        1.60598160289783        0.92298333818566
H           -4.34381902679534        0.21716486740938        1.29221670384762
