51
 energy: -86.693915715610 gnorm: 0.000807196880 xtb: 6.5.1 (b24c23e)
Si           0.05166679717660        1.55528846030961       -0.02288567957667
O           -1.17595779995148        1.03859902378315       -0.96031194767818
C           -2.56873202511472        1.19199043793932       -0.81982703689106
C           -3.09722779785357        0.31575665716965        0.28647548062307
H           -2.79038532695701        2.24280838040947       -0.60103925580723
C           -2.61934231536230       -0.98058770970960        0.42354396234006
C           -4.05508268627232        0.78552847806709        1.17285029653069
C           -3.08620391517836       -1.79451669744681        1.43888329421095
H           -1.86761081641919       -1.34521877839440       -0.26246870421932
C           -4.52672208114252       -0.03177207031777        2.18437240566066
H           -4.41665906660319        1.79853322946477        1.07982133725302
C           -4.04287740674281       -1.32170927533390        2.32058699449501
H           -2.70175407651443       -2.79931535058964        1.54272531895691
H           -5.26679223561675        0.34347853769066        2.87555900294826
H           -4.40605285825837       -1.95563939082893        3.11627904254311
C           -3.21335369084013        0.79577189527063       -2.16226328051969
C           -2.64575327903041        1.56421794644827       -3.24930108979238
H           -3.03711113791842       -0.26924883419204       -2.33894618153459
H           -4.29032198039908        0.96977005128494       -2.10132169496592
C           -2.13221637254764        2.20585171385709       -4.11903065175152
H           -1.70255569146395        2.76616709725190       -4.89457762611980
Cl           1.27817028378110        3.15942515322669       -0.37423383574157
Cl          -1.14149964960462        2.54470633855567        1.46049779835613
O            0.50085086103480        0.41141002588745        1.18866052441750
O            1.18660814993318        0.68214266333203       -1.17840851771250
C            2.22591810452427       -1.08965475897804        0.53516982217933
C            1.38525914958238       -1.55547256826966       -0.53019473511201
C            0.11570811061176       -0.91548693899428       -2.44848507623383
C            2.56010771895119        0.60875151332035        2.19759217673214
C            3.81284202662485        0.15512115066665        2.47151563222319
C            3.53069027410770       -1.56516806597829        0.79063271677345
C            4.30075952612454       -0.96020349262833        1.75810798633611
C            0.99572512735482       -2.89811979024703       -0.73514812932533
C            0.20864845159908       -3.21603627951096       -1.81841478941578
C           -0.22186771453849       -2.21428830907989       -2.70783131398418
H            5.30880627784038       -1.30234068088034        1.92937067767133
H           -0.11530712823393       -4.23489606423291       -1.96265603182619
H           -0.83715230503542       -2.45539403564702       -3.55748637866100
H           -0.21792615864622       -0.07367394994053       -3.03412088690010
N            1.78377323598415       -0.02391184368836        1.30350707885797
N            0.89333375759653       -0.60784786517513       -1.40776486521036
H            2.10593250851567        1.46448163181032        2.67067061573357
H            4.42788605816135        0.65955440638287        3.19589252899207
C            4.14358601969666       -2.64029072891407       -0.05492183184127
H            4.15028997865456       -3.59087305042200        0.47573457503331
H            3.60842143194826       -2.76392137229096       -0.99130223927871
H            5.17687040327433       -2.38054530289731       -0.27463987533373
C            1.32481084675218       -3.95843559424105        0.27150344003121
H            0.42700198973765       -4.53075770347221        0.49774851203193
H            2.06325272354363       -4.65362586358586       -0.12419722016288
H            1.70249470313821       -3.52561442623417        1.19258865467103
