51
 energy: -86.692506216955 gnorm: 0.000719637250 xtb: 6.5.1 (b24c23e)
Si          -0.76743181732716       -1.48561151685629        0.74532613656286
O           -2.05132749420409       -0.65315630406261        0.21986669062024
C           -2.30328309782132        0.01173743684637       -1.00258633066351
C           -2.04347226487303        1.48528780607132       -0.82788835808938
H           -1.64365846091077       -0.39171366919949       -1.77432656342639
C           -2.64939744047759        2.17585473629594        0.21459807979723
C           -1.18893802598212        2.16509538577350       -1.68423837100544
C           -2.42199565083234        3.52939957234544        0.38268341438269
H           -3.29168250824979        1.64104446127911        0.89785499346603
C           -0.95951243667776        3.51926270716622       -1.51373336420773
H           -0.70343057200055        1.62949347232655       -2.48722032144614
C           -1.58045796941403        4.20552388339189       -0.48464422090126
H           -2.90544890332317        4.05932488548357        1.19028425154442
H           -0.29796897215917        4.04147470402645       -2.18999888635905
H           -1.40687061369170        5.26398151577622       -0.35694793004304
C           -3.76469038690275       -0.26350652744825       -1.39609819372204
C           -3.93395929867358       -1.66447036053735       -1.71844114880905
H           -4.02679218686705        0.35514413354089       -2.25871052156774
H           -4.41396094980517       -0.00452193562085       -0.55717610050248
C           -4.01501141950570       -2.83126799485862       -1.96961922195546
H           -4.11073401107441       -3.85335282070600       -2.18333087588470
Cl          -1.78876917483299       -1.95461167932787        2.53027999192505
Cl          -0.30503595586002       -3.43267581232728        0.27359330274236
O            0.19955758804487       -0.90317157051461       -0.80561284907751
O            0.47953851791592       -0.69846373651067        1.64493019756070
C            2.36524984383510       -0.21203682689609       -0.28060384788452
C            1.76786783042499        0.88378048033694        0.42584684767044
C            0.10235823738481        1.54415677361281        2.02431440721442
C            1.95503666752195       -2.21064770195495       -1.52006699565969
C            3.29448425724436       -2.44002390737933       -1.66792427339410
C            3.75435132244875       -0.44941587005631       -0.37984556032601
C            4.20415303339778       -1.54844328466943       -1.07594930141403
C            2.05632398387157        2.24658301712030        0.19990309934778
C            1.39816160905086        3.21468459650555        0.92229272271049
C            0.40827473654320        2.85907011387664        1.86409384260398
H            5.26268327304204       -1.74853854368059       -1.13051730606482
H            1.59977030165505        4.25582117863058        0.72934136270782
H           -0.12440054583474        3.61283214567111        2.41613118496684
H           -0.66326881252025        1.17175256329149        2.68561760686287
N            1.51578271142801       -1.13168641682968       -0.86563490571012
N            0.78280532553648        0.59762555113099        1.35926282347352
H            1.18802929652298       -2.86156574281172       -1.90581613546823
H            3.63663279523885       -3.30840016835760       -2.20299536519079
C            4.74066328988953        0.40552067050293        0.35602983030950
H            5.29901720677715        1.03590751613244       -0.33389357347858
H            4.24928380528940        1.03518088936010        1.09113862995424
H            5.45740644638745       -0.23381816983318        0.86760775969735
C            2.98330779052635        2.66664161587968       -0.90055746945453
H            2.52306030783881        3.47566266833766       -1.46412681645685
H            3.92128748893622        3.04193452357752       -0.49523473820061
H            3.19516430306841        1.84601755614847       -1.57861862975711
