51
 energy: -86.690843632357 gnorm: 0.000473978042 xtb: 6.5.1 (b24c23e)
Si          -0.63071868069340        0.10511161904572        1.30975636174366
O           -1.48203121175312        1.21208035082592        0.48792769600976
C           -1.94668060914538        1.18120000157970       -0.84376531055657
C           -2.93914792543689        0.06486703129938       -1.03246939477353
H           -1.09262873856616        1.02840761094004       -1.51384932608224
C           -3.87754541154969       -0.19860717593848       -0.04374016898418
C           -2.91578329597008       -0.71987962405798       -2.17632198914234
C           -4.77677830533913       -1.23836125294889       -0.19435764118072
H           -3.88247183328112        0.40178831197267        0.85358346504070
C           -3.81977439925714       -1.75641058132253       -2.32910892731859
H           -2.18047367338377       -0.52226352182962       -2.94367267949189
C           -4.75049917238686       -2.01818477247250       -1.33809081952263
H           -5.49624537998130       -1.44216400422479        0.58441472729766
H           -3.79242001661851       -2.36613150409761       -3.22084441580049
H           -5.45038470460716       -2.83249663798466       -1.45504367607943
C           -2.58746200801965        2.54923082179441       -1.13696089443120
C           -1.57623684244007        3.58103436888255       -1.20435128545396
H           -3.12563520255972        2.49637845783935       -2.08704077189199
H           -3.29401441853747        2.77992332983157       -0.33682676452697
C           -0.69522529065524        4.38888220173448       -1.25862132017776
H            0.04416947839560        5.13048081969442       -1.31110423946288
Cl          -1.20399801819269       -1.80951942408506        1.83154761334298
Cl          -1.19330910205059        0.96475918197688        3.15093728952820
O           -0.00401815517324       -0.58487168936918       -0.36761700241371
O            1.01974505230985        0.46494985856403        1.63624886105091
C            2.28744956591439       -1.02928075300652       -0.27941878231408
C            2.48717054363041        0.39053754901919       -0.22907015164986
C            1.72643430217386        2.46185424790288        0.72117111173078
C            0.67531660218943       -2.78228892334526       -0.43056423960007
C            1.65618200214602       -3.73465090923897       -0.45160319976123
C            3.31661899764655       -1.99565826430705       -0.23036416045933
C            2.99547677459091       -3.33060759923614       -0.32499189205692
C            3.30416161345867        1.12264453794950       -1.11694915969086
C            3.33608439634612        2.49672402506328       -1.03991522465439
C            2.52792235529496        3.18304221337107       -0.10716315766707
H            3.77587002146777       -4.07276444357514       -0.26323076882379
H            3.93771949346371        3.05657470989909       -1.73797279167883
H            2.52355766245899        4.25796376065986       -0.06735641307887
H            1.05117221891664        2.89153356240405        1.44313951785660
N            0.98426724740182       -1.48513688314694       -0.35122079988665
N            1.75080162208639        1.12000597005740        0.69265281441674
H           -0.37837315195296       -3.00359773185152       -0.47493041742706
H            1.39534173895163       -4.77572054253977       -0.52651218652436
C            4.73572935844463       -1.59733697050418        0.04058930969630
H            5.35668061471713       -1.74108899834399       -0.84195201692489
H            4.80263450130273       -0.56104202839007        0.35672524745367
H            5.13916258786999       -2.22866833971708        0.83009586123644
C            4.04961185744701        0.44156788704281       -2.22499123964846
H            3.93466173550017        1.01508879327149       -3.14249677093824
H            5.11359582691719        0.39344630253356       -1.99993533979438
H            3.68026337650730       -0.56495194962170       -2.39428753653417
