51
 energy: -86.693951344995 gnorm: 0.000435902904 xtb: 6.5.1 (b24c23e)
Si          -0.55467494224181       -0.97035982276245        0.53168888819867
O           -1.38481592018457        0.36251218355787        0.10713509063118
C           -2.45844663557308        0.54302135295476       -0.78050314156175
C           -3.78767846386656        0.35395478107819       -0.09448488157318
H           -2.37267907618770       -0.17648528897815       -1.60294123024004
C           -3.90922881162019        0.49301816878502        1.27978121121727
C           -4.91394191377833        0.05403677116836       -0.85023023705200
C           -5.13927239493830        0.33087104824978        1.89285667443225
H           -3.03164313631009        0.70768511103762        1.87062832464284
C           -6.14389103368582       -0.10012595615460       -0.23815520493600
H           -4.82008282643710       -0.07112797505919       -1.91937681713166
C           -6.25941416253727        0.03874443954750        1.13516391502803
H           -5.22082772549691        0.43130822435131        2.96512629805790
H           -7.01378230773117       -0.33709012219766       -0.83298192617329
H           -7.21963446924812       -0.08750442987549        1.61318120850650
C           -2.34610547581538        1.97287967182715       -1.34755459766986
C           -1.09451547332269        2.13363726842803       -2.05473899695167
H           -3.18383331052969        2.15434271137489       -2.02453103917323
H           -2.39663942480897        2.68758841102590       -0.52160046616072
C           -0.03727921678672        2.21053114194870       -2.60979125301671
H            0.87317793346098        2.29526059075606       -3.12285804842449
Cl          -0.83768869419019       -2.05841775735546        2.24770498594325
Cl          -1.58146654256459       -2.36611442543827       -0.73572604069252
O            0.84948902987432       -1.21898370236199       -0.43730903922093
O            0.46956454566271        0.10914205900545        1.61677777036832
C            2.85260478745212       -0.30321055687580        0.46014373245690
C            2.25719081176290        0.99997689940420        0.39804043917543
C            0.40267499603408        2.34365395647010        1.05960151402468
C            2.47072612262505       -2.66886367908284        0.31457938741440
C            3.72802137917776       -2.94341787047946        0.75425272054959
C            4.15359230079679       -0.56683305949022        0.94273056362197
C            4.58631295593174       -1.86750864945027        1.06699559094077
C            2.80920773083598        2.11678928414150       -0.27008525762211
C            2.16032567029098        3.32830033433530       -0.21286490877008
C            0.94668004089450        3.45658450298723        0.48462810235787
H            5.56783953535578       -2.06802941598996        1.46567369790516
H            2.56460451940551        4.17744383692615       -0.74125645293579
H            0.43281867845180        4.40070080231885        0.53096827660928
H           -0.54478464969993        2.33013711622287        1.57173733830140
N            2.07223136317158       -1.40022669166231        0.12748341275209
N            1.03916737161642        1.17174154468377        1.02429423352079
H            1.73360366618632       -3.41783257267007        0.07349608772876
H            4.04636890906572       -3.96187327294436        0.89176218346629
C            5.03439378122288        0.53806568828766        1.44324212432410
H            5.82656866368088        0.75385892774528        0.72831669657685
H            4.46887714681811        1.44587334513583        1.62795522389633
H            5.50779489403787        0.22701712391291        2.37215956140711
C            4.02485995737714        1.97343450840058       -1.13533721120464
H            3.84253568659241        2.45434242645819       -2.09461458346721
H            4.88469532673254        2.46620762120716       -0.68498839414343
H            4.26584680303490        0.92930639508777       -1.30927652593630
