51
 energy: -86.693860427363 gnorm: 0.000533291586 xtb: 6.5.1 (b24c23e)
Si           0.41330317801246       -1.11419156546051        0.01753595763022
O            1.34686782873258        0.21737208892162        0.01555561176979
C            2.42411731848524        0.60936599066072        0.82782127176091
C            3.74474397038377        0.34431987760998        0.15107620581110
H            2.38475114165025        0.05854339926519        1.77429339398228
C            3.83746322276415        0.29388321655270       -1.23194119335770
C            4.89009404647101        0.16656852946996        0.91627547889826
C            5.05766562163899        0.06759353279863       -1.84383937344013
H            2.94352660523473        0.41009105407605       -1.82591708215863
C            6.11031476646033       -0.05400652896982        0.30428034428326
H            4.81912227238322        0.18896098102400        1.99415665549854
C            6.19705017043162       -0.10249604285917       -1.07724663688282
H            5.11742276093275        0.02193683372991       -2.92141957045309
H            6.99528004269735       -0.19665981220410        0.90692008347897
H            7.14968223213169       -0.28038469197568       -1.55413274149190
C            2.26077493091824        2.11676369136570        1.11466890122896
C            0.99229995780545        2.36308345055608        1.76504140385618
H            3.08165306145267        2.44820343870480        1.75449952214063
H            2.30220080416107        2.66649008727226        0.17020281740678
C           -0.07870015530812        2.49986589455030        2.28028403051689
H           -1.00172660470747        2.64290616123027        2.75650566406237
Cl           0.57305684429683       -2.66400222699857       -1.31497774548981
Cl           1.38703614392355       -2.15363099793384        1.62322590821829
O           -0.97061629822739       -0.98404974722619        1.03741189969452
O           -0.58105296651466       -0.32282578261575       -1.31513980391135
C           -2.94223677696368       -0.21047103335546       -0.04742249177046
C           -2.26007076084299        1.00800805179682       -0.37312601240404
C           -0.34823418745721        1.96598498991433       -1.42603397302738
C           -2.71303932103927       -2.45974149230795        0.76027514848766
C           -4.00272230383434       -2.75255840235419        0.44342813790365
C           -4.27692439784035       -0.50178150881452       -0.40740473876681
C           -4.79970376061187       -1.74776940951122       -0.14575826428392
C           -2.71036281038094        2.30705917666045       -0.04363983158353
C           -1.98625384394131        3.40043071843232       -0.45831629096625
C           -0.79523613034764        3.23395907669590       -1.18589849789150
H           -5.80816334161821       -1.97825024634064       -0.44982986666712
H           -2.31250690016175        4.39235751587769       -0.18791694546371
H           -0.22385548700579        4.08494152532365       -1.51335019767044
H            0.57561194531842        1.73675673405257       -1.93027023019453
N           -2.22365213243708       -1.22395663516328        0.56849374365022
N           -1.05831898325060        0.90313417911286       -1.04435681818073
H           -2.01793227898926       -3.16272518564766        1.19053823027703
H           -4.39349080747731       -3.74113297196003        0.60928531144929
C           -5.10358900170108        0.47808053419509       -1.18416297361943
H           -5.84865518355002        0.94686603812846       -0.54365996271054
H           -4.48822687479214        1.25065811804180       -1.63411425595281
H           -5.63572053639266       -0.04794399404468       -1.97394464028456
C           -3.89677181640380        2.50803229495979        0.85035360861177
H           -3.64938291563245        3.24068288314682        1.61641691046362
H           -4.74502772170597        2.89982280978471        0.29188090742081
H           -4.18965956715120        1.58070040183177        1.33333999012150
