51
 energy: -86.686726783000 gnorm: 0.000575942614 xtb: 6.5.1 (b24c23e)
Si           0.37339181637782        0.08190921256375        0.26768420716239
O            1.93237549614463       -0.04982790899510        0.65647906785388
C            2.96885548218139       -0.94456354544222        0.34260404774585
C            4.14188504384229       -0.18399971303171       -0.22154602979170
H            2.61685876790656       -1.68239002899954       -0.38686251199188
C            4.36713558174177        1.13579378537957        0.14442124899943
C            5.01983723663392       -0.80903410818118       -1.09754352950144
C            5.45395915699123        1.82387448350958       -0.36555266212613
H            3.67600441127744        1.61935984949471        0.81777717261383
C            6.10962739622018       -0.12162628116301       -1.60073388895908
H            4.84245617448746       -1.83462599797451       -1.38918933210019
C            6.32818703517323        1.19664897997682       -1.23654779793966
H            5.61881881071430        2.85279612639427       -0.08065868495091
H            6.78682141657556       -0.61385577069123       -2.28355513468936
H            7.17661338436369        1.73408969582108       -1.63448080261663
C            3.37987508914746       -1.67502673285249        1.63711006166958
C            2.30541342087434       -2.51684501244476        2.11482897745276
H            4.26712538700197       -2.28135751524325        1.43775910846559
H            3.62078365564260       -0.92530045889004        2.39526920728821
C            1.38962130510132       -3.19163100884263        2.48568957996881
H            0.60987130509910       -3.80356467518242        2.82869569889960
Cl           0.35840509993684        1.78245673893039        1.59033781644077
Cl           0.36999413707038       -1.62763426147517       -1.11761106080334
O           -0.41559727416777        0.92820676220939       -1.01340475738926
O           -1.01925102523660       -0.47906578280161        1.10430080083737
C           -2.65234391901363        1.23674624736054       -0.32640406729028
C           -2.85494190541361       -0.19049507421439       -0.35517263071127
C           -2.12968575973644       -2.35952523678721        0.36480390806510
C           -1.15159111312525        3.07991728432638       -0.63245849145510
C           -2.12175568955920        3.98167515584225       -0.31481870518904
C           -3.65965425023413        2.15036927903787        0.04924599454030
C           -3.39528967091975        3.50284687335750        0.04254758274216
C           -3.87002272955957       -0.80989072264487       -1.11501143870018
C           -4.00889317889834       -2.18064329379763       -1.08660382957322
C           -3.12994473966126       -2.97417853123368       -0.32563219916503
H           -4.15585724860132        4.19546092579062        0.36606773258588
H           -4.76217487265544       -2.65249364091812       -1.69722316211525
H           -3.21361920734411       -4.04681354642869       -0.32324307439048
H           -1.37145805100639       -2.87766126313956        0.92784538452945
N           -1.42595564595553        1.76969465403407       -0.68064643817834
N           -2.03150444683739       -1.02348873679544        0.38209958584825
H           -0.13432859248056        3.34300123722509       -0.86774374443642
H           -1.89938425312226        5.03394490819982       -0.29493420367720
C           -4.98254356876428        1.67766753291165        0.57260716491026
H           -5.77764237476211        1.90087852224568       -0.13669456223532
H           -4.97833439483776        0.61149323718939        0.77448474406557
H           -5.20985980824479        2.20584497441993        1.49641157370116
C           -4.73075794024752       -0.01780253379058       -2.05275175396731
H           -4.74948891864478       -0.51090692387841       -3.02270756534787
H           -5.75551402406085        0.02727808130862       -1.68827853039306
H           -4.35796000737787        0.99284175829262       -2.18432507669720
