45
 energy: -88.791563756005 gnorm: 0.000379242177 xtb: 6.5.1 (b24c23e)
Si          -0.21558915147919        1.02298589519013        0.62769900840490
O            0.85348220733365        1.46142287171051       -0.49496106998900
C            2.24952197449597        1.63308216916062       -0.40851233586545
C            2.93521147960466        0.30785872859777       -0.63121314270812
H            2.50793926989401        2.02357069259126        0.58376779294080
C            2.36490310218289       -0.62797950416176       -1.48449449752399
C            4.12750129446216        0.00613496074196        0.01157283587025
C            2.97358950389000       -1.85435797549916       -1.68430243376981
H            1.42977706416866       -0.39118062447394       -1.97080617921392
C            4.73996565677733       -1.21686569485748       -0.19618815801193
H            4.56721456254914        0.72739781809941        0.68441793687845
C            4.16389290731366       -2.14998929555949       -1.04163740004086
H            2.51722095639601       -2.58117051530420       -2.34237442564100
H            5.66504413234288       -1.44700679539956        0.31120809267062
H            4.63984177872459       -3.10756465322760       -1.19640812815547
C            2.66801083168772        2.64718227624354       -1.48750959267736
C            2.11502786854805        3.95381495002783       -1.20200345204449
H            2.29937706973575        2.29792751729034       -2.45524213515682
H            3.75930147347514        2.70310390859338       -1.51856089107800
C            1.63490891720732        5.01592592358853       -0.93331361137736
H            1.21936399696860        5.95297251758300       -0.71221006980368
Cl           0.84655392433887        1.56072570341377        2.38315070607720
Cl          -1.88086577987664        2.14278024618379        1.10107062389347
O           -1.11430589237791        0.30630479715210       -0.87319545027255
O           -0.31212689963144       -0.55538520475904        1.31216389625908
C           -2.62144526741801       -1.36890824219529       -0.24622231353529
C           -1.54446289566041       -2.22509490374361        0.09832814483975
C            0.72409472531312       -2.53176994062560        0.75954584575484
C           -3.37118316053162        0.70260514996068       -1.12106807777530
C           -4.68829972484607        0.33799746418986       -1.04636309421504
C           -3.97116099859116       -1.77935088802275       -0.18349229724248
C           -4.98684737709458       -0.94278093699677       -0.55153892735060
C           -1.59810077868592       -3.61633356421589       -0.14573401883488
C           -0.50291737416644       -4.41637038822962       -0.00097883182153
C            0.72097733216103       -3.85185161700434        0.42951693470088
H           -4.18473634772134       -2.75594540582403        0.21777476659918
H           -6.01454428845353       -1.25528125602260       -0.46732764139875
H           -2.52256397262289       -4.02284783762867       -0.52114914889005
H           -0.55211994523231       -5.46830869299069       -0.22652755835532
H            1.62231181617198       -4.42992505939754        0.52611344942257
N           -2.36885332214146       -0.10447557841471       -0.73727922651644
N           -0.36178203455549       -1.73791937000620        0.64317433367010
H           -5.44936094723430        1.02725781607975       -1.36576480843663
F           -3.00788062131864        1.85152536939530       -1.65961617694231
F            1.79577293389531       -1.94716783123359        1.26876072666235
