45
 energy: -88.788373103450 gnorm: 0.000663679573 xtb: 6.5.1 (b24c23e)
Si           0.04334821018374       -0.47822768136096        0.66444481520041
O            1.60675874835082       -0.24420440530533        0.25489182606105
C            2.70730893876379       -1.10615833496766        0.17603852382988
C            3.88803389099110       -0.34741255751288       -0.37863086124426
H            2.45515846184284       -1.94532825758734       -0.49035570663524
C            4.03580311268625        1.00664574360846       -0.11286033334620
C            4.85916804325961       -1.00704336644192       -1.12031612305524
C            5.13955304417876        1.69288709811289       -0.58751219102830
H            3.27225218164942        1.51455412935810        0.45562920988141
C            5.96482581713193       -0.32057047485483       -1.58942898045526
H            4.74572528069093       -2.06122038448182       -1.33168243238831
C            6.10743776824361        1.03103671172936       -1.32353413881815
H            5.24597161969254        2.74758813281278       -0.37917030090352
H            6.71561098301367       -0.84079667514736       -2.16644582449570
H            6.97047154550571        1.56645332184985       -1.69174319433505
C            3.08305709482734       -1.67650442977401        1.56251950914895
C            2.14323337470870       -2.68908550655107        1.98899236117655
H            3.08891185389144       -0.85378527883596        2.28164292650767
H            4.08565290921623       -2.10860350518340        1.50451317316330
C            1.34354450697338       -3.52691095915842        2.29018969649369
H            0.64045256685433       -4.25143703815653        2.57361505095392
Cl           0.14536476490324       -0.12016213487813        2.66513935432827
Cl          -0.29688208295568       -2.20708910634527       -0.41794462421265
O           -0.41483345690265        0.81984984880612       -0.33712528009273
O           -1.93566228665185       -0.51973043098104        1.14281481276831
C           -2.68448262250386        1.55392520983587       -0.47729797609926
C           -3.22028464334891        0.25160737359961       -0.64578677471144
C           -3.32738976260414       -2.00008601213869        0.07185637476411
C           -0.95354382388852        2.95066146534143        0.37834086718650
C           -1.72560217509274        4.06747042295952        0.31383133160953
C           -3.45910846698232        2.71908257008073       -0.66137521237166
C           -3.00650905291804        3.94830023119756       -0.27937834884414
C           -4.21912905241801       -0.04930297420328       -1.59571488408935
C           -4.72890602214695       -1.31211818086286       -1.71657576338623
C           -4.27813443030639       -2.32636992524045       -0.85855706487430
H           -4.45635106605298        2.60348938929587       -1.05259911876883
H           -3.61970140860309        4.82567769910077       -0.39596559969888
H           -4.53649053394891        0.73549559063046       -2.26169754738080
H           -5.47150025599302       -1.53640985609847       -2.46433696425141
H           -4.65370512659868       -3.33301986310415       -0.90376464564194
N           -1.37118126306122        1.74147481948137       -0.05432942549746
N           -2.80950027052666       -0.76722086948490        0.18920680344851
H           -1.35195807439181        5.00344195697798        0.68889558109645
F            0.28807890989596        2.98651336998653        0.83849640368874
F           -2.91389274956324       -2.88219387610845        0.96609469532780
