45
 energy: -88.793529306748 gnorm: 0.000979857826 xtb: 6.5.1 (b24c23e)
Si           0.01493725438153       -1.49449439731361        0.30681279194955
O           -1.25764610937314       -0.48251752424351        0.41962913710874
C           -2.50966826173432       -0.51128208470419       -0.23503123939226
C           -2.49201143952247        0.46742612446490       -1.38156346452814
H           -2.69012835703700       -1.52031938008282       -0.61932578299846
C           -2.05524443890035        1.77044548836205       -1.17958565701581
C           -2.88418856134964        0.07311732318457       -2.65309873307939
C           -2.01426431850392        2.66781213119190       -2.23124944512648
H           -1.73720681015486        2.07995786170239       -0.19403631993344
C           -2.85020945453882        0.97323858689017       -3.70364000794034
H           -3.20275542464572       -0.94496856515117       -2.81824640338557
C           -2.41604845473800        2.27156663126973       -3.49556472714660
H           -1.66934746296313        3.67832806330305       -2.06256931661689
H           -3.15625997194929        0.65762708443065       -4.68997655183168
H           -2.38577365628546        2.97198321387836       -4.31733033772043
C           -3.60245711967711       -0.16229151083579        0.78975807636328
C           -3.61885088262925       -1.14951671134184        1.84868112937585
H           -4.56818296811492       -0.14103588809679        0.27825482568655
H           -3.40531074750153        0.82626158493889        1.21306787894322
C           -3.55990336167935       -1.99263826675995        2.69504258063426
H           -3.53403611240548       -2.72080642026259        3.44914551505236
Cl           0.34814790793057       -3.04997373995077        1.56834893895194
Cl          -0.60366787369719       -2.63062706612074       -1.36333956882902
O            1.23504074545247       -0.87892673719408       -0.73943866141852
O            0.81948208705731       -0.45225654035743        1.66397543614192
C            2.50418943022864        1.00419457423668        0.05670485079166
C            1.43990038031150        1.61820936710877        0.76196541951154
C           -0.35910527467306        1.41962646275704        2.29083758815281
C            3.53276472226400       -0.97198920020000       -0.78228738247778
C            4.75630991419205       -0.38391381746351       -0.87778260013813
C            3.73841458597240        1.66337929193246       -0.14652590036707
C            4.84097158483252        1.00050510993026       -0.59988967203720
C            1.20567983975656        3.01169102387793        0.73842753243899
C            0.19756454688195        3.57703687600315        1.46620584421725
C           -0.61520169974792        2.76475307025374        2.27715445850591
H            3.80692554672461        2.70081885865352        0.13636435109329
H            5.78272926444757        1.50925527775336       -0.71928328318191
H            1.81436808845431        3.61626028084261        0.08724667210866
H            0.01187090762798        4.63750546171126        1.41957891482145
H           -1.41582810866224        3.16209552891573        2.87607233255561
N            2.42100370890913       -0.30682925909825       -0.39960255059712
N            0.62657939734078        0.85746692223551        1.57595898916292
H            5.61076214252552       -0.96555943795324       -1.17453408504092
F            3.34694114225596       -2.24346933903886       -1.09570166624527
F           -1.05197432706408        0.59730668634254        3.05689909348128
