45
 energy: -88.797660616137 gnorm: 0.000477737736 xtb: 6.5.1 (b24c23e)
Si           0.40600991925363       -0.82975962013383       -0.67561493100093
O            1.14051732443639        0.36883344860752        0.14670717703027
C            2.26959347811819        0.30905199168879        0.99087185598748
C            3.51255172319625       -0.05066594880218        0.21994764522760
H            2.08751542827673       -0.44407718903485        1.76649062945858
C            3.72405810495761        0.48628051888100       -1.04247265239196
C            4.44977834581577       -0.91946878061408        0.75969311693114
C            4.85804681317584        0.15236910844966       -1.76028150897014
H            2.98742581249732        1.15008692955049       -1.46904251062202
C            5.58723318466321       -1.24603433871958        0.04343101599378
H            4.27842608582094       -1.35136145454108        1.73458608305275
C            5.79283837318721       -0.71190239137284       -1.21730179512146
H            5.00887387740724        0.56564221300595       -2.74646153189265
H            6.30969235922301       -1.92805166953189        0.46671286631549
H            6.67723358972394       -0.97492153693825       -1.77878088505135
C            2.42319441299558        1.69561158218904        1.64309485178675
C            1.22820120403262        2.04754165446735        2.37776269165023
H            2.60442230919896        2.43583453757580        0.85927410049305
H            3.28366483674043        1.67579477915114        2.31584723246339
C            0.20293571822109        2.29847813393492        2.94188364655420
H           -0.67362887826866        2.53004458978437        3.46895083656548
Cl           0.90759073725610       -1.41101526886902       -2.55793548079253
Cl           1.21937118748894       -2.47802147342630        0.36530747621296
O           -1.10415260441786       -1.26704016223309        0.02145145207629
O           -0.55717460073970        0.55387595635127       -1.56166188706912
C           -2.97404532067635        0.20052231196088       -0.32154087755175
C           -2.23452831042266        1.39806022960999       -0.16464211092070
C           -0.30097270500345        2.66331700714419       -0.66971286083184
C           -3.02638055164516       -2.09894975622317       -0.93772526906079
C           -4.37535656348716       -2.09668505125971       -1.11489721953537
C           -4.38583506991251        0.19192942795292       -0.38946092455073
C           -5.07936303353271       -0.91821563730063       -0.77276336634029
C           -2.71740818045104        2.51165235997006        0.55820997577124
C           -1.98569772084492        3.65915047412917        0.67092258706603
C           -0.73289866388377        3.74870595145001        0.04180589045785
H           -4.90476812447844        1.11557603188087       -0.19429788921003
H           -6.15349966130916       -0.90145940270076       -0.84819084391875
H           -3.66411110440232        2.41499074181369        1.06287026172113
H           -2.35400182410367        4.49455848261946        1.24316895052891
H           -0.11653732347134        4.62742111557141        0.10515932038257
N           -2.33966220325764       -1.02556732304266       -0.49065535226958
N           -1.01470572650412        1.53563725646256       -0.79364910909221
H           -4.87032958765317       -2.97641875035467       -1.48535081271621
F           -2.29776200496650       -3.17962238207393       -1.16195135317342
F            0.84422593774861        2.69330630296895       -1.33154749163829
