45
 energy: -88.791218706629 gnorm: 0.000735063897 xtb: 6.5.1 (b24c23e)
Si           0.32093703845803       -0.88145171397138        0.43789958115737
O           -0.81390272789664       -1.27360549848431       -0.63052965518581
C           -2.07694306014989       -1.87565704404639       -0.47087599585669
C           -3.15364478516322       -0.83133400332893       -0.62816919878722
H           -2.14365978466112       -2.32886297166664        0.52587122013900
C           -2.94262713165428        0.26716926570726       -1.45048971933628
C           -4.36220597441016       -0.95807619085362        0.04275397133697
C           -3.92470203287398        1.23079581159991       -1.59445556102312
H           -1.99573319333554        0.36391525733910       -1.96091036765686
C           -5.34701614397854        0.00139809913480       -0.10958714472031
H           -4.52538711578955       -1.80671240277377        0.69095844820348
C           -5.13012828033697        1.09814327852290       -0.92679051864574
H           -3.74965377751988        2.08669389286148       -2.23137210555568
H           -6.28459596887548       -0.10297285751818        0.41640138746305
H           -5.89800070049013        1.84969097107392       -1.03983211045827
C           -2.21728918597194       -2.97605683668899       -1.53881696836480
C           -1.24733460896216       -4.02428308639240       -1.30371394963096
H           -2.04475280855077       -2.53224332379671       -2.52242763505039
H           -3.23020826067782       -3.38462601278181       -1.50159262056668
C           -0.42234628544755       -4.85633134312047       -1.06229971618951
H            0.29632435568662       -5.59508829260552       -0.86876500906101
Cl          -0.46707120715701       -1.74459441373658        2.20557345655174
Cl           2.14021893954129       -1.84598011451427        0.60836207488276
O            0.99104774731664        0.11653598078150       -1.02822320340018
O            0.26867798684355        0.61021431625407        1.28892300544669
C            2.38643475765320        1.83931503939738       -0.26947688958439
C            1.26597063654148        2.53050431506823        0.25457230472124
C           -1.02061347162314        2.48609051549871        0.92088090823554
C            3.24048011886957        0.00088597136280       -1.49729929236217
C            4.52307234974425        0.47664770923457       -1.45535918150718
C            3.69871037926208        2.35932573007538       -0.22447529442479
C            4.74993035846699        1.68876694961253       -0.78306470926409
C            1.17798996018760        3.94115397025556        0.24305317273849
C            0.00445024204442        4.58661880302187        0.50284428090113
C           -1.15821616472836        3.83378029694819        0.79400607118577
H            3.85988589407247        3.28024238557627        0.31035158787296
H            5.75091704668757        2.08171609783788       -0.71574840810921
H            2.05290063084664        4.49853267619629       -0.04765002578718
H           -0.05694553806097        5.66102954693217        0.46092238351966
H           -2.12051041270704        4.29131321683543        0.93815739678697
N            2.20558144903641        0.63985020806315       -0.92737525863225
N            0.15369935372820        1.84780759755148        0.73452624309729
H            5.31205406489272       -0.07912453932372       -1.92958852937895
F            2.93432248355486       -1.08603193069085       -2.18063991545628
F           -2.03362517241800        1.71241367355538        1.27850248975458
