45
 energy: -88.793621826171 gnorm: 0.000962088580 xtb: 6.5.1 (b24c23e)
Si           0.25939327847732       -0.04653792507112        1.23583310612552
O            1.52444510336116       -0.61564410745517        0.42318082146596
C            2.12821893874933       -0.33056120978615       -0.81552983852120
C            3.62864629104842       -0.29537890719825       -0.65251472339705
H            1.77197327397393        0.63622362293314       -1.18393919644125
C            4.24793958506659       -0.95158886110212        0.40122375623688
C            4.40372910179932        0.37847943034918       -1.58836538696760
C            5.62715798124612       -0.93179732727956        0.51756531599782
H            3.64128652460941       -1.46260071080623        1.13263357972306
C            5.78179230202793        0.39153045527464       -1.47359172815564
H            3.92295540251081        0.89713614196091       -2.40630682439058
C            6.39646547130862       -0.26474711094661       -0.41996181780992
H            6.10159129460212       -1.44017329396754        1.34382016870784
H            6.37724103558263        0.91718596048193       -2.20602557088959
H            7.47282627215166       -0.25260960286666       -0.32991743706863
C            1.74016591016961       -1.43525601109264       -1.82332188614503
C            0.40637743249563       -1.24768650543548       -2.34615245885538
H            1.80351686180821       -2.39763445822679       -1.30885056635055
H            2.45289181090930       -1.42861994124774       -2.65213851875239
C           -0.69538520435016       -1.07058233708358       -2.78003824928614
H           -1.65651128501025       -0.92943884515606       -3.17688230050436
Cl           0.21979766044243        1.72270729200801        2.31274702820548
Cl           0.62631994481393       -1.28164318018123        2.86678856436966
O           -0.26412545601349        0.96425534982276       -0.34716026131791
O           -1.29538452736268       -0.74781490524449        1.13584032206753
C           -2.53116962931573        1.54279365957192       -0.20341921223258
C           -2.91422138101719        0.18998126318209       -0.37788984194076
C           -2.31580535318673       -2.11485320023154       -0.40857873124066
C           -0.81708820964389        3.17631839713878       -0.12233965514053
C           -1.70172712497386        4.21095686352236        0.00896278778299
C           -3.46727931096677        2.59377337062271       -0.07793584467248
C           -3.06964429330258        3.89488578811275        0.04558414423929
C           -4.09506281193974       -0.16740711452234       -1.06867900853815
C           -4.34186939861578       -1.45322102180416       -1.45244205882529
C           -3.39117223772951       -2.46174033063826       -1.16581825638846
H           -4.51205114490795        2.33701133727902       -0.02779622048717
H           -3.79496505386162        4.68162656449539        0.17127359722075
H           -4.77365187585065        0.62130221427318       -1.34860810684935
H           -5.23355346777800       -1.70530842097020       -2.00163968168642
H           -3.50073473048144       -3.47269486564572       -1.51533490662766
N           -1.19716437891131        1.89222122189533       -0.22082962454088
N           -2.11261491607447       -0.86181849249578        0.05226194056924
H           -1.33601599844485        5.21915272911589        0.08510139771577
F            0.48412491534528        3.38906116527482       -0.23673725615060
F           -1.41219360275974       -3.00606714085618       -0.03438236025225
