45
 energy: -88.786270265794 gnorm: 0.000884831927 xtb: 6.5.1 (b24c23e)
Si          -0.04700711332479       -0.57752829586711        0.84202274366981
O            1.55137432225786       -0.59694651142248        0.50546855262600
C            2.57818604139389        0.34460783777973        0.69504774776983
C            3.69578503091798        0.05179031750123       -0.27722084721886
H            2.18126677848209        1.34919557470090        0.50237480615538
C            3.96181025853564       -1.24994749886447       -0.67671826503168
C            4.49616075241115        1.08450116057162       -0.74777205925130
C            5.01112862980367       -1.51480429340130       -1.53880854541722
H            3.33098098499694       -2.04748044188455       -0.31652831796437
C            5.54813326648403        0.81790010329090       -1.60561496895489
H            4.29243862776771        2.09989659465318       -0.43772329363257
C            5.80777502530774       -0.48273341666509       -2.00318681247430
H            5.20829831285470       -2.53077904481560       -1.84789884914282
H            6.16552313049655        1.62764939818844       -1.96687978139013
H            6.62811756287074       -0.68988182727147       -2.67479743662285
C            3.12719187983157        0.29138932616293        2.14208076518477
C            2.48053917204954        1.25617956026927        3.00264359380420
H            4.20197824224266        0.49243583917132        2.12504677703741
H            2.96581789388735       -0.71665838301507        2.52987059544071
C            1.95430918232387        2.08975622721462        3.68058893412707
H            1.48063761402301        2.79626157050802        4.29318976735420
Cl          -0.35270806933200       -2.19954150198802       -0.36892174560802
Cl          -0.11271813578463       -0.62479610714562        2.86456288318292
O           -2.08931311989518       -0.50699201976062        1.09993347514840
O           -0.31574906652077        0.88192825474733       -0.00454042174930
C           -3.05876558658454        0.29130349031711       -0.86276539301667
C           -2.54070704659892        1.58688553690144       -0.60675156003985
C           -1.02213226816041        2.99666625524467        0.57089078373882
C           -3.35061539128363       -1.94683632047051       -0.15579004342402
C           -4.13945131039171       -2.26077345967736       -1.23069694874348
C           -3.87762209891597       -0.00019329445387       -1.97447019794801
C           -4.39620619342758       -1.25072993136750       -2.16780541289014
C           -3.25477961105534        2.75356304527230       -0.95753186595473
C           -2.89227889045933        3.98736700589493       -0.50321828714437
C           -1.76030651640410        4.11237950643094        0.34057824922136
H           -4.04533788625317        0.77769997866046       -2.70026833664673
H           -4.99825312492048       -1.46723024539433       -3.03482983354609
H           -4.14903279030575        2.63482249779391       -1.54650808832202
H           -3.46690194331302        4.86297227933602       -0.75283868393481
H           -1.46765936802917        5.05130906724861        0.77538160623353
N           -2.82709295752507       -0.72564805096418        0.03664138252077
N           -1.34227800702108        1.77614307907598        0.08281687805945
H           -4.53112908459770       -3.25726331276098       -1.32972396629432
F           -3.11592991637619       -2.82354179213667        0.80477341808638
F            0.10416678752427        3.04069224239301        1.27204300299471
