45
 energy: -88.793877450863 gnorm: 0.000469029142 xtb: 6.5.1 (b24c23e)
Si          -0.47789727375556        1.15080648876752        0.97132418671351
O            0.60449463956256        2.02887466259917        0.16081040591091
C            1.10141124092394        1.93269029758205       -1.16076450616504
C            1.99901263845565        0.72793694672513       -1.27511051497782
H            0.25775229896202        1.83383141946228       -1.85080663861744
C            3.02464626635110        0.54748378522046       -0.35556720735497
C            1.79280515023266       -0.23122923898505       -2.25688569431479
C            3.83036832278933       -0.57569154817762       -0.41724835976511
H            3.17357187466798        1.27904906207150        0.42424398510196
C            2.59130314211797       -1.36043331693289       -2.31111990630272
H            0.99655996832458       -0.09486307366802       -2.97390446996111
C            3.61160984033112       -1.53535799627618       -1.39145573433414
H            4.62656322403524       -0.70298491553290        0.30154660026744
H            2.41679648594043       -2.10700721922928       -3.07254815711615
H            4.23436048796443       -2.41701238815152       -1.43525164733622
C            1.86415332608540        3.23221449259267       -1.46692702709206
C            0.94705112088297        4.34214025280396       -1.61457865785146
H            2.43644963269672        3.09992964662758       -2.38949702937706
H            2.55270094979677        3.43841755074893       -0.64480819514583
C            0.15721172222224        5.23172628534463       -1.73951003856169
H           -0.52168746094644        6.02444139113464       -1.84120513879089
Cl          -0.09781996460147        2.12439728903626        2.75814581461814
Cl          -2.52190415889207        1.43439404250413        0.97535507595706
O           -0.69224638037683        0.06644777773814       -0.66455966521982
O           -0.12511271598809       -0.34827266495013        1.72944525149580
C           -1.53289045950525       -2.05433287136820       -0.16522007208176
C           -0.31891637332828       -2.39969861037683        0.48123765412116
C            1.67721413895022       -1.77220336202252        1.61759261472533
C           -2.80317748567692       -0.47330993622566       -1.38838319554947
C           -3.86261554872452       -1.32657154386509       -1.53563288669264
C           -2.60064492442939       -2.96472024705444       -0.32475532202732
C           -3.74959923718159       -2.60871380213182       -0.97331565919201
C            0.21414419747602       -3.70496987813573        0.39385450188575
C            1.46043549362358       -4.00947680757636        0.85527420527351
C            2.24377633603068       -2.99773644305198        1.45903140459448
H           -2.50893875634714       -3.93646474928327        0.13074365958238
H           -4.57030459900442       -3.30164820980628       -1.05786761514713
H           -0.37447405572790       -4.45110522631190       -0.11374676332254
H            1.86341806775747       -5.00254225456489        0.75059093096702
H            3.24517734106499       -3.17579870043783        1.80714060550377
N           -1.68128060918578       -0.80626540328565       -0.73053214661308
N            0.43261527981821       -1.46741328447134        1.19008098674723
H           -4.73797914604631       -1.00160973147630       -2.06886073989896
F           -2.79061402150087        0.71784565667915       -1.96475796590748
F            2.30855798415267       -0.79530262429018        2.24891007125217
