45
 energy: -88.790960974167 gnorm: 0.000904627718 xtb: 6.5.1 (b24c23e)
Si           0.27818533121435       -0.90982341854544        1.14086141665844
O           -1.09186263405734       -1.42800742209275        0.49911862210254
C           -1.64667123152322       -1.49821118957357       -0.79574859381828
C           -2.94486099932670       -0.73251772070540       -0.83423915473669
H           -0.94051335327737       -1.06944314214239       -1.51142568768149
C           -3.69922599805090       -0.55706782749967        0.31759613817711
C           -3.40491825624526       -0.21017880080824       -2.03685951228540
C           -4.89350212481777        0.14035856847217        0.26814908829243
H           -3.33624309013751       -0.95569823700485        1.25217016592501
C           -4.60376549166345        0.47805302288310       -2.08614748492730
H           -2.81813680193361       -0.34263927670305       -2.93515500564517
C           -5.34954969315783        0.65675531085819       -0.93260563822271
H           -5.46954789473367        0.27842722894506        1.17097339979787
H           -4.95518160487452        0.87927416636787       -3.02590004192065
H           -6.28325991589203        1.19851709442059       -0.97155911198077
C           -1.87552794551197       -2.98276265631029       -1.13832643541262
C           -0.60394778004713       -3.66780128066206       -1.22761311273626
H           -2.40929966171595       -3.05329256794716       -2.08891411960251
H           -2.48473608336094       -3.43358190339362       -0.35099533790672
C            0.47840523257643       -4.17452472950372       -1.27853755313683
H            1.42238785265634       -4.62787116003129       -1.32475649497688
Cl          -0.17190461096772       -1.51259325903717        3.05612379832215
Cl           2.10197899893997       -1.80480350402400        0.95925495162858
O            0.70036264422312       -0.01462805687999       -0.75676017546361
O            0.43241270480765        0.70474669852245        1.64521911334862
C            2.15339379808247        1.77461303953188       -0.41194940354273
C            1.10793503850703        2.50017742957930        0.21353884004244
C           -1.04579692555302        2.44437719989917        1.23333847560724
C            2.85086463442799       -0.18744074362087       -1.52896340140074
C            4.11313232661986        0.29990737673340       -1.74582753848538
C            3.43770686556381        2.31048867281937       -0.63879402316570
C            4.40788439888229        1.58709738259717       -1.27602525327641
C            0.94613308075381        3.89322837404504        0.06452412342818
C           -0.20808533754952        4.52026363477588        0.43551183417920
C           -1.27309191932901        3.75953439694738        0.98024234794949
H            3.65024541299216        3.29326635026295       -0.25257753515003
H            5.39399462942482        1.99651506758545       -1.42083734396950
H            1.73630379016858        4.44483083830928       -0.41768687900259
H           -0.33511856305127        5.57962917809449        0.29053908173771
H           -2.22880969114892        4.19487711101873        1.21133181200146
N            1.89637878629620        0.50441606647470       -0.88662013988623
N            0.12258824399450        1.83327772098730        0.93891714020368
H            4.83266704775941       -0.30663922355762       -2.26618239699731
F            2.47628257119545       -1.36047085159603       -2.01666537769941
F           -1.95390278115934        1.67616404150600        1.81850540362168
