45
 energy: -88.791948204601 gnorm: 0.000597543171 xtb: 6.5.1 (b24c23e)
Si          -0.14593100443034       -1.19054383668494        0.89469865471220
O            1.36330201823907       -1.75484277704300        0.60636918813041
C            2.59639242211884       -1.23421628777312        1.03878618493722
C            3.04493030675052       -0.08986047433740        0.16570455906627
H            2.49119887921072       -0.88578100498085        2.07499021973446
C            2.74588815052427       -0.08733154576028       -1.18958664191397
C            3.76693629888800        0.96580810567713        0.70553360652275
C            3.14322909391113        0.96804213673213       -1.99052705327659
H            2.17926388701554       -0.90782808281270       -1.60304914804790
C            4.17353321567127        2.01600763707492       -0.09809693798333
H            3.99715697838928        0.96987522109924        1.76110191641381
C            3.85772001233628        2.02236184163780       -1.44648479191619
H            2.89560036662461        0.96787740658396       -3.04267488403502
H            4.73050781649050        2.83641481437131        0.33089514033257
H            4.16745074848865        2.84744474914768       -2.07182315617357
C            3.63435584825431       -2.37250358538072        0.99143305281679
C            3.31056052168596       -3.40098909206577        1.95607238257511
H            4.62448772190091       -1.96087130840273        1.20405474979521
H            3.63350641513295       -2.80086270699838       -0.01390750913720
C            3.00355621423009       -4.22505010228608        2.76719733131982
H            2.74793484190323       -4.95964848032813        3.47058515861845
Cl          -0.05527875883943       -0.81634298425656        2.89551571797791
Cl          -0.91261309562244       -2.74638231998888       -0.20913584152623
O            0.02830685109003        0.19337275805148       -0.10304103995155
O           -2.00734414042530       -0.54279703521134        1.15074126815891
C           -1.90724183706281        1.46900871078648       -0.72882658389062
C           -2.78616978600398        0.36400537211633       -0.86128704549786
C           -3.68695534278786       -1.63360818223559        0.03505462431949
C           -0.02314266188886        2.45502750073561        0.34666783627657
C           -0.41067481405968        3.71796969621480        0.02913246676833
C           -2.25909886529112        2.76343064999152       -1.17159556282823
C           -1.53800391386889        3.86543506834198       -0.81515635242972
C           -3.69934031930727        0.23921528149038       -1.93082644359400
C           -4.56570973788806       -0.81507133127016       -2.01029955400491
C           -4.57621913999660       -1.78286266867712       -0.99480428615169
H           -3.16280614164806        2.87061392533655       -1.74820639302434
H           -1.83479375848846        4.84973721440689       -1.13602503217177
H           -3.66264826914951        0.97506226697862       -2.71654189715675
H           -5.23893148360237       -0.91099907725099       -2.84616745062129
H           -5.24401336895964       -2.62560840305244       -1.00252395596897
N           -0.68382084554882        1.35323900123750       -0.07270820127937
N           -2.82489971528402       -0.60736829181955        0.11621338504061
H            0.14070809168677        4.56104792185404        0.40512154503358
F            1.05518291701787        2.21965623460203        1.08030568026983
F           -3.67844661739443       -2.46539893584644        1.06138309377563
