45
 energy: -88.441845985199 gnorm: 0.000914479718 xtb: 6.5.1 (b24c23e)
Si           0.02613861030482       -0.84438596265590        0.74905939930168
O           -1.23590747306613        0.12924121626901        0.41716282830769
C           -2.62161630481868       -0.01201088547539        0.22611036187476
C           -2.99373778678025       -0.28689359127955       -1.21469334680975
H           -3.03095719541723        0.97658645769201        0.49822575709338
C           -2.04183989844004       -0.52114325772758       -2.19472181683342
C           -4.33795314224035       -0.26963507696066       -1.57444329408413
C           -2.42645734262724       -0.76551787192227       -3.50222651678415
H           -0.99434672228792       -0.51938323057712       -1.94146490186006
C           -4.72116091343921       -0.51344798963645       -2.87949231873503
H           -5.09233143904238       -0.05567383070754       -0.83045265136739
C           -3.76509279472398       -0.76891288872973       -3.84839076550356
H           -1.67252461628578       -0.95549235302307       -4.25192050393840
H           -5.76918771742293       -0.50238391141211       -3.14127782393303
H           -4.06411214159727       -0.96343557534032       -4.86774417609671
C           -3.23852071388930       -1.05682858954347        1.17540274314862
C           -2.92608293028518       -0.73912083615701        2.55150039909807
H           -2.84039770880217       -2.04307187990231        0.92926342467967
H           -4.32138820501404       -1.07003956754504        1.03842116214593
C           -2.63445929241979       -0.43422383840590        3.67121825047159
H           -2.37078671144440       -0.20075605295765        4.65914043379274
Cl           0.55494028385575       -1.60052892573099        2.56887166528286
Cl          -0.67849480304597       -2.68868655676422       -0.05878604330835
O            1.13380149189793       -0.80986883101146       -0.56757706229692
O            0.91807777440759        0.70973729325860        1.37287578641103
C            2.59421136195126        1.05842342218410       -0.75535055027968
C            1.59477981636420        2.01376330040026       -0.44067092856658
C           -0.16356121011575        2.71609536407227        1.00230413215459
C            3.42363488403656       -1.17617852462594       -0.50500190284047
C            4.68474793058099       -0.79055126617582       -0.86485116633455
C            3.86298596917454        1.43309999806046       -1.24482422036036
C            4.88972860046044        0.53510679060277       -1.30720262369824
C            1.44346417789408        3.21976230027290       -1.15775992877862
C            0.48652466445011        4.13124412306165       -0.81120548252948
C           -0.33957285222706        3.88237825893760        0.29624156463041
H            4.02363808319881        2.46771828162500       -1.49873052326541
H            5.86555425422447        0.83434603135503       -1.65204940243355
H            2.07003354960696        3.37929093467942       -2.01926806023813
H            0.35614131714039        5.03684920899698       -1.38063321154159
H           -1.09358956616611        4.58252598319364        0.60792407962437
N            2.39153359460554       -0.29812022539073       -0.53455779570776
N            0.76729776754456        1.81188770154326        0.64505421697255
H            5.49230586685204       -1.49891072293693       -0.82260548184432
Cl          -1.06883235633062        2.36220425968492        2.39920939351397
Cl           3.04675583937278       -2.77156068329182       -0.03505209853679
