45
 energy: -88.445075334759 gnorm: 0.000544839753 xtb: 6.5.1 (b24c23e)
Si          -0.00742734780168       -0.60310885643511        1.10462427087686
O            0.67552717085239       -1.73298439415536        0.17860210467030
C            1.40927849828368       -1.66074075406675       -1.02363614431211
C            2.77493257851786       -1.06723243816036       -0.79362680270580
H            0.85666841771597       -1.04189979418347       -1.73934804293662
C            3.42198413475022       -1.24059089246598        0.42176150412736
C            3.39892639058395       -0.34195559122440       -1.80043047837348
C            4.66748009148596       -0.67739182286521        0.63560894021804
H            2.93659326154802       -1.80338510449421        1.20480365486896
C            4.64826705363373        0.21307345693415       -1.58886218850981
H            2.89641643641180       -0.20214688723232       -2.74768584253656
C            5.28229832296827        0.05106142584462       -0.36825014165227
H            5.15594016941805       -0.80537987523528        1.59018312509721
H            5.12275211201155        0.78329913691794       -2.37442523440588
H            6.25189958943599        0.49605512195651       -0.19940717035358
C            1.52465362243840       -3.09602824229873       -1.56966566425242
C            0.23524544633865       -3.57416000909916       -2.01906217614784
H            1.89730015144025       -3.74044682151550       -0.76998881947786
H            2.23501782905513       -3.10845329497161       -2.40042711844508
C           -0.85255785900156       -3.91187458920401       -2.38584444785871
H           -1.79556883608516       -4.24198601016387       -2.70498288336109
Cl           0.94868402295542        0.89742000147595        2.15069171104816
Cl          -0.19847857476867       -1.91151914225533        2.72174450492798
O           -0.03354121257880        0.57902901695181       -0.48034513361771
O           -1.69611068426861       -0.37023707359905        1.12193396950351
C           -1.76530945345317        2.13375622154808       -0.29465128574471
C           -2.72908062885522        1.10262950305625       -0.43839140213272
C           -3.23860327178414       -1.24141801362500       -0.37407749976579
C            0.51799576560968        2.80855730645427       -0.29726881603701
C            0.17523009872147        4.13390070678851       -0.17482589136614
C           -2.12923206386090        3.49275052027751       -0.18342745916394
C           -1.18291259697467        4.47533009532554       -0.10457694136388
C           -3.94286563167846        1.30558245788485       -1.12892843212539
C           -4.74397452122117        0.25563267472609       -1.47551603870879
C           -4.35024771879600       -1.06145617962412       -1.14815997748555
H           -3.17696639410273        3.73189361959437       -0.11288868072409
H           -1.46930206736144        5.50793342758099        0.00902419469486
H           -4.18799286841412        2.30688465745604       -1.44169450752632
H           -5.65480086447964        0.41469502430368       -2.02809041283126
H           -4.91691598574614       -1.91408442707487       -1.47568063727870
N           -0.41679474535612        1.83828787707213       -0.33571478929912
N           -2.49879446302715       -0.18252156229078        0.03817577291815
H            0.94979403466599        4.87843506597240       -0.14085957230990
Cl          -2.71990516964720       -2.77689272096913        0.15686869401372
Cl           2.13936676041610        2.31480617908606       -0.47761981415476
