45
 energy: -88.443525562990 gnorm: 0.000716808022 xtb: 6.5.1 (b24c23e)
Si           0.29262856867161       -0.16142371117738        0.55791431658491
O            1.11268323273349       -0.77272447572556       -0.69159703750061
C            2.40214092904738       -1.34777385599260       -0.70024936774962
C            3.44841122242585       -0.29702801655643       -0.43319611278430
H            2.45454952130246       -2.11877262383367        0.07875004427851
C            3.32904705608790        0.95606721516159       -1.01898839249286
C            4.52009136113567       -0.55843285067544        0.40782871911326
C            4.26660112852723        1.93923881020570       -0.76173468839063
H            2.48409139759166        1.15819328892382       -1.66037677868684
C            5.46236033378863        0.42357673747832        0.65807808397540
H            4.60551011197950       -1.52711746526679        0.87785291513789
C            5.33648591936552        1.67335440738268        0.07594678988439
H            4.16093421253705        2.91515386849584       -1.21297307435128
H            6.29075633824248        0.21563862516300        1.31915456142523
H            6.06749101506830        2.44177193460007        0.28065986255782
C            2.60996496147553       -1.99110170834762       -2.08154221176221
C            1.69633531320653       -3.09464513748248       -2.28288451584033
H            3.64113986709379       -2.34653050733737       -2.15394437000914
H            2.43870205192955       -1.23252528098169       -2.84893376283789
C            0.92653470616229       -4.00073841598821       -2.41688983743881
H            0.25754839829636       -4.79689662607188       -2.55438307667779
Cl           0.61332405128076        1.67793869555650        1.46390930316694
Cl           1.24255210205197       -1.23736229989996        2.14653425488953
O           -0.70393476442435        0.65464264141679       -0.80107588517852
O           -1.16061801521553       -0.90094113845381        1.07366139053865
C           -2.88459564542430        1.09725679291392       -0.06906294508653
C           -3.17518957584891       -0.28959740539569       -0.03601057342354
C           -2.36763886782824       -2.54581342746318       -0.01955437430181
C           -1.37574195698771        2.85473441139151       -0.62231617308169
C           -2.30880276604459        3.81727676016860       -0.32346842836553
C           -3.85745293340218        2.07753374373150        0.22608430260624
C           -3.57498479900898        3.40999865311180        0.12499645158459
C           -4.45123303548321       -0.79271043035354       -0.37228411343294
C           -4.65361724522360       -2.12697470874738       -0.57820245707112
C           -3.56914474592472       -3.02419188114072       -0.46317881264434
H           -4.81836613124681        1.74574257287066        0.58173115260386
H           -4.31442039446450        4.15093107329248        0.38076538619677
H           -5.24890403824769       -0.08752912186754       -0.53605624940686
H           -5.62271423767047       -2.50047981578847       -0.86414397067396
H           -3.67653239989710       -4.06812907339196       -0.69560633466309
N           -1.64255695892740        1.54096504817009       -0.47845224929429
N           -2.20276896662652       -1.23228358779845        0.26668954989450
H           -2.05755919888425        4.85573046969567       -0.44354252274213
Cl          -1.01626000606080       -3.54937827546580        0.24364643730036
Cl           0.14279688284190        3.25711309147460       -1.26177120585143
