51
 energy: -86.704553523420 gnorm: 0.000527698036 xtb: 6.5.1 (b24c23e)
Si           0.35840217876342       -0.73320972217822        0.58122932294448
O           -0.81001888967663       -1.17768279917066       -0.44323220205223
C           -1.96385017169446       -1.96168212083824       -0.27266669394850
C           -3.18592162912184       -1.11823766719376       -0.53473502962464
H           -1.99545656783851       -2.35042948778731        0.75197754662466
C           -3.14194690544267       -0.11194312384378       -1.49183394671703
C           -4.36056611301201       -1.33353938378137        0.17328151289980
C           -4.25614477936090        0.67206013096769       -1.73377958129336
H           -2.22073319924281        0.05797084314001       -2.02922663182937
C           -5.47625672071967       -0.55342027193390       -0.07487912582621
H           -4.39357190393649       -2.10808692946266        0.92558275224984
C           -5.42613702394858        0.45113830257917       -1.02700028728820
H           -4.21128974158043        1.45618173264535       -2.47590724054452
H           -6.38615037870507       -0.72563671362892        0.48109731375776
H           -6.29644941254332        1.06242846432229       -1.21571356958739
C           -1.89879871494557       -3.14323159261030       -1.26030903871771
C           -0.74032555137302       -3.96292690422011       -0.97713803904002
H           -2.81157006895715       -3.73671078156342       -1.16733129096030
H           -1.82973721986264       -2.74908776962747       -2.27755530625002
C            0.24200306089101       -4.59112881779275       -0.70966186061874
H            1.09445617489096       -5.15601289307828       -0.47722201944962
Cl          -0.57887180429625       -1.39583212007556        2.42290918785403
Cl           2.06799247069249       -1.83698354591730        0.97458720302625
O            1.07961047925987        0.01539235678701       -0.91095460190489
O            0.37377334791445        0.79189823880064        1.33537515045964
C            2.54472476115638        1.74454960066194       -0.32078853137651
C            1.46445527619079        2.54168018340614        0.13996868835882
C           -0.82393477350883        2.70866348137422        0.87798702933483
C            3.30973378779538       -0.21354616611315       -1.47267829034498
C            4.59856582983908        0.26476112148157       -1.47004075719424
C            3.87225697100479        2.22653029835919       -0.31662187141200
C            4.88903576329585        1.49369503149774       -0.85723359972338
C            1.47457749721030        3.94536090114768       -0.02523380756291
C            0.35458952552432        4.69113653857383        0.19765737979951
C           -0.83548766964932        4.04917662309639        0.60485549590713
H            4.06936768623616        3.16776641822181        0.16894160406540
H            5.90496347882515        1.85256910966031       -0.82239869341745
H            2.37118178206454        4.40560264613708       -0.40590712211553
H            0.36093671452054        5.75686302392059        0.03778188350876
H           -1.74645996191362        4.61001585858834        0.72430298063708
C           -2.00204744654760        1.96320296559786        1.39404630875157
N            2.33242156052819        0.50248300022979       -0.88179807818274
N            0.32106209046504        2.00430999163827        0.70693304949452
C            2.92771715418764       -1.48194813094766       -2.14683106833424
H            5.37680088366239       -0.31446884334555       -1.93624079122476
H            1.95613664704994       -1.37232393153446       -2.62317554674454
H            3.67930505432541       -1.76048806603970       -2.87920745123833
H            2.83469074309481       -2.27636169673637       -1.40777154472046
H           -2.28038347498626        1.17482881327925        0.69383354608756
H           -1.75732143725458        1.47372920770524        2.33628045982592
H           -2.84605635928287        2.63051459559745        1.53655120365101
