51
 energy: -86.700471478823 gnorm: 0.000638937135 xtb: 6.5.1 (b24c23e)
Si          -0.02369083324251       -0.44040327730635        0.16788085729879
O            1.52762250584042       -0.81311829330521       -0.12275564258438
C            2.70023098074559       -0.82135951250661        0.64475764304445
C            3.82584276253017       -0.16618227650392       -0.11393576270902
H            2.52790879870039       -0.28932214101353        1.58819647766508
C            3.81961974747288       -0.13417749947878       -1.50121641398149
C            4.89968220794297        0.38173276351167        0.57622481502880
C            4.87239312337333        0.44228540729515       -2.18981095602239
H            2.97840651005972       -0.55461495741986       -2.03016870934222
C            5.95501962116675        0.95026123905470       -0.11373826329885
H            4.90419220927850        0.36374084166638        1.65696567312202
C            5.94341718461213        0.98183872170571       -1.49841395405187
H            4.85802699337390        0.46696128544089       -3.26973468785873
H            6.78753557840233        1.37254691963592        0.43007105699000
H            6.76712875038210        1.42813762435162       -2.03622813567683
C            3.06152774549652       -2.29085479611681        0.95530187164441
C            1.99572884847081       -2.92216370483170        1.70132862071271
H            3.99188940880348       -2.32011742729075        1.52714105956901
H            3.20388888253023       -2.82015233022611        0.00921873812626
C            1.06711605115599       -3.39449832044312        2.28989110304414
H            0.27925782375086       -3.83585602910450        2.82311883945552
Cl           0.29809577965128        0.33795583310808        2.15624034389280
Cl          -0.47356845321739       -1.69056509924828       -1.53165214900352
O           -0.37134639172545        0.99722493344632       -0.67050904878575
O           -1.61420048827530       -0.71003465314878        0.83489544134832
C           -2.64921789064389        1.59922968209272       -0.34544809659676
C           -3.18298211853495        0.29758211172479       -0.58121534382143
C           -3.22707008988780       -2.06510988385589       -0.13292443638375
C           -0.83251585218386        3.10141974905824        0.16290004706943
C           -1.71022741810720        4.13214770290228        0.36844121466862
C           -3.53233701980674        2.69325373541871       -0.21048496855286
C           -3.08703276811896        3.93390716486501        0.14327249778695
C           -4.33455598262406        0.12920111783397       -1.37963876116986
C           -4.90000571743198       -1.10061780961174       -1.56023159288357
C           -4.34390756965372       -2.21819635174905       -0.91380400150569
H           -4.58749713675548        2.50545148465205       -0.32200965273358
H           -3.77806757184396        4.75002853299346        0.27718944616139
H           -4.72457286049303        0.99139695313865       -1.89500243921808
H           -5.75888598687913       -1.22150937484548       -2.20036299310062
H           -4.77658812779060       -3.19595827763409       -1.03639049140850
C           -2.57882420433377       -3.18491837531881        0.59710033073700
N           -1.29955497691273        1.89223713349094       -0.22821310184295
N           -2.68596558204627       -0.84004217277647        0.01741076253626
C            0.63828687704628        3.24012671640278        0.32236902488093
H           -1.33987592631537        5.08985655985720        0.69097085119544
H            1.15056271326085        2.92117303776590       -0.58396706419152
H            0.90072463246453        4.26749219210428        0.55259119523263
H            0.97456857977752        2.58745421225593        1.12928648040775
H           -1.61394359409115       -3.39862747801468        0.13709162047721
H           -2.39492392509039       -2.89851318078144        1.63126518409766
H           -3.20050183028386       -4.07368243324211        0.56061447052913
