51
 energy: -86.708712261369 gnorm: 0.000803834704 xtb: 6.5.1 (b24c23e)
Si           0.19453247838644       -0.71773141477036       -0.71272471859721
O            1.18100955391777        0.34137223863220        0.04089577156353
C            2.20219744937266        0.13794706431273        0.98410544117031
C            3.52143014935463       -0.21514358844921        0.34243175573265
H            1.90992351610458       -0.67330962966597        1.66166338800640
C            3.75667426310321       -0.00348744079300       -1.00690446804261
C            4.53389700149918       -0.75010944614246        1.13049444239066
C            4.98368132745925       -0.32214222127722       -1.56298394125499
H            2.97172157882924        0.38997267482123       -1.63456619971693
C            5.76172464520698       -1.05969271487910        0.57727139558861
H            4.35077247764379       -0.93585047038185        2.17929198160352
C            5.99048943159309       -0.84476311976941       -0.77206851498885
H            5.14855117652726       -0.16293787493756       -2.61825708243410
H            6.54039669392464       -1.47736035320891        1.19856134376129
H            6.94818617441934       -1.09237869337519       -1.20555292639266
C            2.33471197538497        1.44393580071198        1.79491388706957
C            1.09421501786572        1.73944884556218        2.47767678295894
H            3.14092736350545        1.33145121217867        2.52297470136322
H            2.58463697769279        2.26336674617908        1.11546484509164
C            0.04009138103634        1.93965693856806        3.00751119030109
H           -0.86876416731581        2.12344132025704        3.49691798419281
Cl           0.42985704639774       -1.29609700793721       -2.67158252178621
Cl           1.06877425822324       -2.51558339263465        0.09461452363708
O           -1.19639124487390       -1.14102390205581        0.17451534418166
O           -0.70896365103442        0.68857022388499       -1.42957736322022
C           -3.02993321244654        0.37064893677953        0.03901041222061
C           -2.23611119167531        1.54321863098121        0.13227654469537
C           -0.37525365851840        2.83649258581911       -0.64221079959775
C           -3.22506639474805       -1.95277784484726       -0.57219934674442
C           -4.58922777127940       -1.84793444049128       -0.60752409561011
C           -4.43965121216700        0.43502245585577        0.10546381469253
C           -5.21120691798000       -0.64560682279583       -0.20751491114028
C           -2.63128880893213        2.64342790105589        0.92547794642299
C           -1.90010782109990        3.79532210432346        0.94884981866382
C           -0.75761359256919        3.89989323420527        0.13906144187340
H           -4.89545247800022        1.38362635571467        0.33636695878850
H           -6.28673546989373       -0.57983330080787       -0.18500408516101
H           -3.50250241818069        2.53149142908638        1.54955924018264
H           -2.19016167336861        4.62074417779800        1.57887099634115
H           -0.17877245836620        4.80716800416325        0.12179075328229
C            0.78417551242495        2.88967797271997       -1.57036450987864
N           -2.48734716374254       -0.88362986291749       -0.18530984888872
N           -1.09081052353367        1.69639913081721       -0.61874535635001
C           -2.48579799327383       -3.19715629259781       -0.90879445475395
H           -5.18077176672212       -2.68942269528456       -0.92451826598399
H           -1.83956583761703       -3.49197147086059       -0.08273356873438
H           -3.17677676736215       -4.00127247699177       -1.14015596773295
H           -1.83453667710924       -3.02125244678548       -1.76567995033907
H            1.21603470660349        3.88532216606841       -1.58992604445056
H            1.53437228201255        2.16783282014803       -1.25423168340173
H            0.46755043332685        2.59987895401867       -2.57173008057518
