51
 energy: -86.703623204512 gnorm: 0.000497969939 xtb: 6.5.1 (b24c23e)
Si           0.50716847377189       -0.99324695178057        1.04244887645927
O           -0.80155066394292       -1.68051389695914        0.37513527848115
C           -1.37491826041818       -1.59783419348083       -0.91584879258156
C           -2.57948274189576       -0.69539451478998       -0.81753778744200
H           -0.65111854144757       -1.16099900106074       -1.60778403909537
C           -3.64335572872336       -1.03164701422864        0.01179985195539
C           -2.59755534629393        0.52486757336361       -1.47935280524016
C           -4.71317356256090       -0.16737144312394        0.16165075969093
H           -3.61977943813504       -1.96332209773336        0.55615906365969
C           -3.66711242687276        1.39037134752188       -1.32778951059735
H           -1.76615596513564        0.80026466308305       -2.11330237192557
C           -4.72774816556829        1.04468210803818       -0.50862946515286
H           -5.53489091008127       -0.43798547133465        0.80808531298606
H           -3.66869251137165        2.33719144199145       -1.84772226943752
H           -5.56259116796294        1.71953108834978       -0.38979103887979
C           -1.71720538399054       -3.01901646245963       -1.38907428012723
C           -0.49711165290059       -3.73772985090360       -1.68912593442617
H           -2.34754543111381       -2.96033106707771       -2.28064919880060
H           -2.25802811417318       -3.54190693730885       -0.59804619839999
C            0.54820185244504       -4.27207731458311       -1.92034135217699
H            1.44810942992175       -4.77193632054153       -2.12107005767592
Cl          -0.14765599384019       -1.67456084871227        2.94539504485770
Cl           2.41041270791103       -1.75867529950534        1.30695533380808
O            0.97982877237069       -0.32051934855784       -0.62869944463876
O            0.45881155023359        0.61571493669184        1.62294240206486
C            1.94861092580759        1.79700205891810       -0.50687125942653
C            0.74338430071965        2.34090852205639        0.01455295684747
C           -1.28338713539542        2.10101655442033        1.29726814611962
C            3.14386565410803       -0.06786072546009       -1.42528071718117
C            4.22280006977441        0.74025927158139       -1.69854186680424
C            3.05117580194445        2.62311259565840       -0.81224088224115
C            4.18290011293847        2.10542384202470       -1.37354472111147
C            0.28761945415381        3.61139320874848       -0.39931513181386
C           -0.93683295423747        4.08161294824730       -0.02478861765420
C           -1.75187260445460        3.29377059419622        0.81594557628478
H            2.99445123015101        3.66442637495374       -0.54153142348316
H            5.03623009574400        2.73329929668196       -1.57291559265961
H            0.90592109311908        4.17156670511465       -1.08152171674410
H           -1.29247633537569        5.03588292682131       -0.37765649796307
H           -2.73367050015760        3.63096756071339        1.09945150929464
C           -2.03524115052209        1.25870924689763        2.26155820348245
N            2.06013841529442        0.45620402937747       -0.81781433590304
N           -0.05631571855520        1.66787041471169        0.92323122434404
C            3.11107633912873       -1.50078300834356       -1.82171636627534
H            5.09152822646761        0.31392850660186       -2.16996459610663
H            2.10456339107830       -1.79390600497577       -2.11416104602398
H            3.80524818141274       -1.67786054634489       -2.63807559698137
H            3.39198408202881       -2.12066792377849       -0.97069724384092
H           -2.21843550657410        0.27121104297940        1.84043279686091
H           -1.44622303064583        1.10375585103444        3.16525445317964
H           -2.98353421817984        1.72268053226417        2.51272936843600
