51
 energy: -86.704521024014 gnorm: 0.000492991260 xtb: 6.5.1 (b24c23e)
Si          -0.51123544668155        1.09691169232134        1.02799192137537
O            0.68077542113786        1.89932821766363        0.27033997905447
C            1.13479447091012        1.85609555624370       -1.06899219328273
C            2.04509198643632        0.66520535097036       -1.23557932086750
H            0.27483784554405        1.75299278847321       -1.73660573209128
C            3.22596016815923        0.58094149956380       -0.50771015308903
C            1.68727133630331       -0.39077743343362       -2.06233874766094
C            4.03557135552328       -0.53596789144129       -0.61087337186908
H            3.50718606613340        1.39227420532184        0.14680633396160
C            2.49445843729430       -1.51046272465442       -2.16239757520083
H            0.76882209239418       -0.33529621869036       -2.62816648367664
C            3.67105231097658       -1.58497311604037       -1.43743256051784
H            4.95296646094121       -0.58777611769936       -0.04319297134900
H            2.20328764795851       -2.32686409286360       -2.80708150370404
H            4.30189702760063       -2.45779050445013       -1.51757547616937
C            1.84601234356849        3.18618132730181       -1.36755942325131
C            0.87741892724238        4.24921054082186       -1.53022184198754
H            2.43863435279438        3.08054066441158       -2.28045152725667
H            2.50729799113945        3.43058356243344       -0.53420420937406
C            0.04056990985326        5.09356978847670       -1.66419706232269
H           -0.67525544311899        5.85184733352871       -1.77483238989312
Cl           0.12883124488815        1.96641476353957        2.85879487890073
Cl          -2.48505934762791        1.64965753933759        1.32991841029956
O           -0.93863889452640        0.28613248969410       -0.58113529515920
O           -0.29449505250354       -0.45725950286457        1.71193667821025
C           -1.64606229986542       -1.92846140914363       -0.32416763311901
C           -0.38979014172520       -2.30498312829778        0.22273333901186
C            1.57594943830313       -1.79637733984884        1.51999663847302
C           -3.05871577363291       -0.27370064864508       -1.33170963835370
C           -4.03937030507570       -1.21325529095605       -1.54213276755775
C           -2.64817194837986       -2.89254040918010       -0.56902201193021
C           -3.83735510661270       -2.54403751632445       -1.14072445766106
C            0.19684550826426       -3.54570029712913       -0.10919754238097
C            1.45011482957125       -3.87460490244632        0.31572249698126
C            2.16467816050936       -2.96756213657802        1.12606218508058
H           -2.46938208249145       -3.90279135913017       -0.24011498957080
H           -4.61353242330850       -3.27701828776936       -1.29006105534401
H           -0.34899677091915       -4.20194477231696       -0.76698773189400
H            1.90285238547112       -4.80900683909332        0.02687780632448
H            3.16322311300393       -3.19690230980513        1.45496627693848
C            2.21759773106903       -0.83122821350386        2.44817244766698
N           -1.91581168075774       -0.63033701607765       -0.70951864536961
N            0.32546709431312       -1.50227827629814        1.09372367058488
C           -3.18650388397379        1.12738162015145       -1.81301443096426
H           -4.95601590427751       -0.91875701038076       -2.02329194830778
H           -2.26318335240985        1.44687367532709       -2.29260018026182
H           -4.01297955950424        1.21047714272777       -2.51175360247007
H           -3.35928356648677        1.79256676771434       -0.96748782550609
H            2.27869277351345        0.15393540907877        1.98948369649651
H            1.60887757662294       -0.71150345502349        3.34441084588604
H            3.21203897643986       -1.16899971501775        2.72102469416818
