51
 energy: -86.705787333747 gnorm: 0.000288056029 xtb: 6.5.1 (b24c23e)
Si          -0.24442833249076       -0.14821163937184        1.16446480509272
O           -1.25608097136513        0.80849922274389        0.31145324094420
C           -2.55970134337464        0.65035050225567       -0.21034346818371
C           -2.59342179908602       -0.49075614820677       -1.20223406052840
H           -2.72905658962563        1.58959400294383       -0.76514406996462
C           -1.58910045147543       -0.52573170711285       -2.16400125878819
C           -3.55022158247227       -1.49436993785664       -1.19473707252581
C           -1.52727442946170       -1.55200277904661       -3.08659641932719
H           -0.84434551922419        0.25859448523330       -2.17661018972799
C           -3.49362562527896       -2.51724964911898       -2.12618928805512
H           -4.33540904351906       -1.50136051236130       -0.45656706300233
C           -2.48290424086304       -2.55356209649260       -3.06965333865273
H           -0.73321506320328       -1.56961507125664       -3.81955137106759
H           -4.24051597266575       -3.29705324039902       -2.10491566241827
H           -2.43736213415219       -3.35950224935269       -3.78742546689296
C           -3.59727395253625        0.56836643042967        0.91742575048088
C           -3.42478665559783        1.68319763860828        1.82385903134970
H           -4.60089749484658        0.59794530090948        0.48713694382601
H           -3.45746619958362       -0.36321607302787        1.46969618376440
C           -3.22505166449405        2.61581591404242        2.54689587545863
H           -3.07288877263603        3.41665850379588        3.20678896325883
Cl           0.05023330195435        0.03224232263177        3.18745298290985
Cl          -1.47798400868408       -1.90500400496749        1.32198754155756
O            0.75418942582310       -1.14730386492129        0.21014849384775
O            1.00995956521879        1.17524584775513        1.04088196484323
C            2.57827887097341       -0.05188284879924       -0.86599331068941
C            1.88244156331824        1.15602291176812       -1.13240720070467
C            0.55963049794876        2.98362929860588       -0.32185879567780
C            2.87544150854559       -1.99425485178559        0.52837991037860
C            4.15412632430722       -2.15183484669354        0.06753624824049
C            3.85302887491711       -0.29852281000906       -1.42259070569950
C            4.63119618217362       -1.32480365077565       -0.97279181245831
C            1.98666523468533        1.81866667501207       -2.37555223515779
C            1.37103801385369        3.01889876072673       -2.58640538771872
C            0.66034786073862        3.62215198142673       -1.53554217652176
H            4.22953182135418        0.39249466270238       -2.15875763943065
H            5.61640585394754       -1.48796096530003       -1.37818307359353
H            2.52325570402839        1.32725521384039       -3.17023884603162
H            1.42699638589882        3.50462348177680       -3.54742402101378
H            0.19159248519881        4.58195858786294       -1.66984423849399
C           -0.13446761871110        3.57227131537872        0.85213221145981
N            2.09827157445558       -1.01375196080691        0.00747449927448
N            1.14060473550844        1.78092175305497       -0.15311947116621
C            2.25392815049290       -2.86619825007873        1.55943299800573
H            4.78201761821123       -2.91892510495202        0.48691302281796
H            1.36749410829680       -3.35518677041404        1.15615457964488
H            2.95993418960033       -3.61566877412018        1.90225832122611
H            1.92130534137170       -2.26347953545284        2.40513747588656
H           -0.42066982320312        4.59975592744610        0.65035514279850
H           -1.02148615864753        2.98711728426089        1.09653039945168
H            0.51847325437298        3.52828931747018        1.72276705697702
