51
 energy: -112.038443842209 gnorm: 0.000863015644 xtb: 6.5.1 (b24c23e)
Si           0.55470677856806       -1.58874763716366        0.99085549580422
O            0.26100273439456       -0.01923763393018        1.05392779637200
C            0.29935221083593        1.00115046548279        2.05581155587053
C            1.28421044658800        2.03038167534005        1.55205990041539
H            0.68120562293295        0.55332954934623        2.98247580088808
C            0.89346125855576        3.20294872311512        0.92141276491041
C            2.63966554022911        1.73482817727213        1.65591182101404
C            1.84853881475006        4.07758831178970        0.42983253164937
H           -0.15121220061238        3.43894832112744        0.80226384504283
C            3.59021384703439        2.60260801328715        1.15141042518083
H            2.94899343566500        0.81598702773173        2.13352695612130
C            3.19554883703736        3.78193089896930        0.54241741892046
H            1.53459336350949        4.99356622153119       -0.04828245357920
H            4.63859521545168        2.35985363043546        1.23921734675249
H            3.93653611936126        4.46595313353771        0.15588080619704
C           -1.12536190580311        1.50924873299920        2.28063252153681
C           -1.94385588801970        0.45193951481786        2.83553162775014
H           -1.55562737816735        1.82267441053701        1.32523564454872
H           -1.10255905845114        2.36082259122643        2.96306119625406
C           -2.57824217853448       -0.47006155972233        3.25842643412150
H           -3.15819953271698       -1.25536883438157        3.64059806297666
Cl           1.98530629475597       -2.17206691645809        2.25618385168346
Cl          -1.08705869771078       -2.71663020330744        1.19693637128001
O           -1.96923286923575        1.63514132347805       -0.78838381974840
O            1.01095705126451       -1.81663629819159       -0.58535122375601
C           -1.16166045017766       -0.36438900921618       -1.59966161107022
C            0.17874064259528        0.15256284777869       -1.68348048581006
C            2.51655787538477       -0.37266312364150       -1.68417084086836
C           -3.42336090506469       -0.08013428558731       -1.00993537127569
C           -3.72986308359506       -1.38221870439703       -1.34213626068718
C           -1.45391733735090       -1.68526892364387       -1.95830724973301
C           -2.72240267787358       -2.20239129554093       -1.83666465669858
C            0.51073504155279        1.47619306481188       -1.92652072102296
C            1.82489771312210        1.87985167311257       -2.06995738329301
C            2.84237195721736        0.91954089486735       -1.96360607532582
H           -0.65339923457077       -2.29248746716326       -2.34886543270465
H           -2.93334825221630       -3.21983690766265       -2.11768748229441
H           -0.29019909074755        2.19176964158112       -2.01379535411542
H            2.06870229177989        2.90770497268560       -2.26884732647106
H            3.87652193619159        1.18656255597957       -2.11007108318165
N           -2.17584010239048        0.44138858453244       -1.12977703805634
N            1.20540053050591       -0.78772722708920       -1.53661692478176
H           -4.73865469501370       -1.73887765462668       -1.21827519307664
C           -4.47374056860733        0.87729969875731       -0.50045965504543
C            3.55478640429226       -1.44745816363535       -1.54252004372837
F            3.17684775655673       -2.61161466464006       -2.08341778882762
F            4.70427771443048       -1.10089883934639       -2.14041829093423
F            3.87229566642666       -1.70257169178644       -0.26020108747922
F           -4.19271110082398        1.39143831773902        0.69954871786834
F           -5.66352764892258        0.26701414268967       -0.37874054836496
F           -4.67012524438291        1.90715492456780       -1.33649649122697
