51
 energy: -112.025443806523 gnorm: 0.000445990420 xtb: 6.5.1 (b24c23e)
Si          -0.06164136722579        0.11072350962582        0.88133886309558
O            0.66842877231170        1.33746111115001        0.16335611387353
C            1.52354203085121        2.33873863656885        0.67493187307823
C            2.70928334151954        2.48831607298323       -0.24192673157771
H            1.85757228829520        2.05448407003641        1.68057377108310
C            2.55236698955126        2.34658637736392       -1.61376763682423
C            3.96141218525593        2.78898079270632        0.27627843559391
C            3.63793918456083        2.50144667319791       -2.45696781892575
H            1.57936914302359        2.09521418884638       -2.00643975698898
C            5.04442676110438        2.95017980073464       -0.56964013484892
H            4.08680971764969        2.89099434938739        1.34478489034327
C            4.88458298361338        2.80671977117846       -1.93747585177049
H            3.51127801420679        2.38503764162132       -3.52354774274402
H            6.01651573097371        3.18221480185619       -0.15964806701201
H            5.73185802719996        2.92875542215131       -2.59649222061951
C            0.73354055568168        3.65850849725191        0.75926015483255
C           -0.29576692016038        3.57260365495849        1.77233518385471
H            0.27357448520465        3.84884942667702       -0.21315682244797
H            1.42356473047449        4.47206634840373        0.99665736889804
C           -1.13366004941366        3.45205464381025        2.61776054611561
H           -1.87580950167872        3.36093118257067        3.35295513728510
Cl           0.86616590488845        0.01454709548556        2.74091131744854
Cl          -2.00130308638406        0.20790623998482        1.55659897615436
O           -0.80744907562774       -0.08669465138241       -1.02244361945171
O            0.42485062225719       -1.49451912599085        0.64745927128095
C           -1.98508925229443       -2.07947492005079       -0.99403287312163
C           -0.77514429645028       -2.82076257527854       -0.95984011700813
C            1.61333163176208       -2.82825278110684       -0.80737935721971
C           -3.06587340934277        0.00561704729409       -1.31854575908555
C           -4.30952864458681       -0.57487221354636       -1.34375948905087
C           -3.25867980786574       -2.69211419211681       -0.98846504374235
C           -4.40159555465128       -1.95901007467386       -1.13381727696368
C           -0.69075446387672       -4.10980216197308       -1.52803586918263
C            0.50953165703510       -4.70976551406151       -1.77714909488417
C            1.70411822771624       -4.01176199722623       -1.47157572739326
H           -3.31170337562047       -3.75444978824074       -0.81763569287247
H           -5.36885969328688       -2.43185887004140       -1.09729903275801
H           -1.60650530513008       -4.59208527662515       -1.82864417848896
H            0.56254764017777       -5.68312849620325       -2.23364178582757
H            2.66579661862116       -4.40987395271941       -1.74690030444034
N           -1.94514059161315       -0.71222143550225       -1.11812660247149
N            0.41280198989322       -2.27848592525866       -0.47414377223770
H           -5.18526870569294        0.02852117192958       -1.50866647534460
C           -2.86608107944418        1.47081037382339       -1.64252478033409
C            2.84449348431326       -2.06990855182547       -0.36372376372019
F            3.08233696613331       -2.18101359661765        0.94528168549514
F            3.93732772023231       -2.55017124298739       -0.98239934043028
F            2.78648961959485       -0.77176825554430       -0.66066860086830
F           -2.29628133213117        2.20330695204815       -0.69560105751689
F           -4.04667458238351        2.05353099150871       -1.91199606222535
F           -2.12626292923410        1.61167975382406       -2.75432512802413
