51
 energy: -112.029465037660 gnorm: 0.000661495365 xtb: 6.5.1 (b24c23e)
Si          -0.49443703884442       -1.47301200275497        0.47301284568645
O            0.95646470608846       -0.78096567572273        0.65210519238670
C            1.89397049555897       -0.85687585597815        1.72235666146251
C            2.24283895694621        0.57115964713374        2.07622186756257
H            1.39577177874431       -1.32282510535459        2.58372785188586
C            3.48573656880147        1.14267933370035        1.84615354927237
C            1.23080845738577        1.35567972570520        2.62162939147029
C            3.71645693429377        2.46857231202007        2.17636850454372
H            4.28755366723892        0.56165274861215        1.41852148607932
C            1.45874212215458        2.68056689232721        2.94101829467053
H            0.26147929761028        0.91206489262307        2.79782162250514
C            2.70727065130198        3.24001466881287        2.72360844323677
H            4.69270785749449        2.89792658879928        2.00535082626166
H            0.66547907669419        3.27416192712113        3.37091410351094
H            2.89263541741337        4.27164765600181        2.98381853235440
C            3.07404325111658       -1.74159481123788        1.31129589666376
C            2.62235307246624       -3.10601758447578        1.12614567969177
H            3.83174528539830       -1.71011645898594        2.09841848161237
H            3.50461921691352       -1.38190937327283        0.37439111944666
C            2.19619917736957       -4.21371637753376        0.97952947443250
H            1.84323465718282       -5.19094022598660        0.83936180104424
Cl          -0.58721899334849       -2.93223905625038       -0.86251350142991
Cl          -1.01336629729620       -2.19123556290599        2.29831731102320
O           -1.67407606491720       -0.30215069575919        0.51770007651564
O           -0.18437942644318       -0.17641168509914       -1.67497420617954
C           -1.55307502469844        1.84923310212503       -0.52846000409459
C           -0.13540611125883        1.89944382676685       -0.70433892964006
C            1.80435765637495        0.91008271677651       -1.60784124774902
C           -3.56324015991427        0.54780663075814       -0.52872788594379
C           -4.33009612964520        1.65762523388735       -0.69439547481048
C           -2.34605104704728        2.99819509916596       -0.60006346265485
C           -3.71561248914407        2.92947316483843       -0.66930318107591
C            0.63929706436232        3.00814487693238       -0.33057059442041
C            1.98454427896540        3.06177689795426       -0.59556467128214
C            2.58300203901993        1.99329119498654       -1.25900420414230
H           -1.85157932063288        3.95401117264143       -0.66507329536281
H           -4.31627442265201        3.81873150539065       -0.74538839568465
H            0.15842873241587        3.81233820295685        0.20080786685316
H            2.57279491066339        3.91204163975178       -0.29565470031832
H            3.63177256485796        1.99897243734816       -1.50248614547507
N           -2.19869965090737        0.61879567729998       -0.38020840908585
N            0.48479116879331        0.84674050368100       -1.33617924193125
H           -5.39249131218032        1.56153193307905       -0.84508285988928
C           -4.16432954109761       -0.83329700500923       -0.47882692114488
C            2.36648031281747       -0.24361560650626       -2.40316462761572
F            1.84664533385399       -0.29253335453634       -3.63629431841197
F            3.69660382226754       -0.09565208088680       -2.56759324003435
F            2.20169890145071       -1.44008429354173       -1.84981874988563
F           -3.51785042276578       -1.70640725837384       -1.25350398539145
F           -5.43835595894527       -0.81675936473645       -0.90173195019846
F           -4.19455602227925       -1.34751177428570        0.75858532367803
