51
 energy: -112.029424819935 gnorm: 0.000963911706 xtb: 6.5.1 (b24c23e)
Si           0.50860351364611       -1.29041525039809        1.07871965910996
O           -0.99724637111882       -0.79005780644762        0.76830508229410
C           -2.18319340451860       -1.52893574049966        0.49114285094546
C           -2.73134775085363       -0.97373902697556       -0.80435582534561
H           -1.90570472776724       -2.58073403897799        0.33551637036729
C           -3.91565556407314       -0.25750539877163       -0.89892797327593
C           -1.96484616496000       -1.16322690274000       -1.95076580723776
C           -4.33389834205949        0.24271152625418       -2.12156957001758
H           -4.52780883351103       -0.09030348390731       -0.02680403208164
C           -2.37773711244850       -0.65546746645806       -3.16763703905596
H           -1.04123689457741       -1.71916504163797       -1.87759387467946
C           -3.56894228914998        0.04635338005547       -3.25704100062292
H           -5.26399358325757        0.78877532278069       -2.18376107218670
H           -1.77622763329059       -0.81662712113686       -4.05003387476939
H           -3.89973354118058        0.43456112839055       -4.20902329719192
C           -3.12589583593825       -1.45084375913399        1.69538646133373
C           -2.51706380186615       -2.10692959197904        2.83519965264828
H           -4.06550092871090       -1.94953283116737        1.44404619423309
H           -3.32200239979806       -0.40742130016843        1.95100607653157
C           -1.96542387147491       -2.64776795378810        3.74794576303200
H           -1.49797924026654       -3.11525546522616        4.56163358273871
Cl           1.12874485655015       -1.02914116424332        2.94097357609115
Cl           0.56006047507837       -3.26693626818161        0.62265870633737
O            1.49828165783186       -0.89645358881915       -0.19787021149113
O            0.68671828887230        1.22575622569187        1.17314299972271
C            1.43462069692369        1.16348794320622       -1.42224497470717
C            0.13266405804274        1.59485054559395       -1.02006435212319
C           -1.34257042278381        2.13730212044497        0.73702079755168
C            3.49523729287897        0.08607890831833       -0.84824097699228
C            4.14531405993731        0.68719055760256       -1.87924223675386
C            2.07843408184195        1.70537495831404       -2.53903060845068
C            3.40760975618665        1.47339178845335       -2.79243867032111
C           -0.83400262668873        2.04659064234366       -1.93187758358597
C           -2.04253189281186        2.53813256613451       -1.50724562745574
C           -2.30280055843871        2.59533679396350       -0.14003615458022
H            1.51895700845208        2.37193294642337       -3.17547477040203
H            3.89791236207176        1.91117844548304       -3.64423921895391
H           -0.61853744652191        1.97094326055788       -2.98442965682250
H           -2.78224437841928        2.87286421869462       -2.21414071525990
H           -3.23092384780651        2.98818208642391        0.23903440673583
N            2.14665354426932        0.25073927103446       -0.63957600286015
N           -0.15905664355315        1.63971075142831        0.32312635329824
H            5.20970588816328        0.56410858896918       -1.99124058667609
C            4.20890791789338       -0.81839777588005        0.12342594646422
C           -1.52294192187647        2.24327155051760        2.23224170488836
F           -1.41120438969047        1.09505178771819        2.89212255480494
F           -0.65787209752364        3.10849934726466        2.77535900225868
F           -2.75156469367296        2.71532801377499        2.52356308474515
F            3.90300628954949       -0.55464013325548        1.39479972249685
F            5.54059646106611       -0.68259207690243        0.01397465374697
F            3.95420300134611       -2.11758948915101       -0.08550148847622
