51
 energy: -112.030869999455 gnorm: 0.000329458772 xtb: 6.5.1 (b24c23e)
Si          -0.55416286118719       -1.55095712497364        0.25524329997464
O            0.68745937463816       -0.67088860361098        0.78253212532486
C            1.95297958061515       -0.87752863869494        1.37277658719066
C            2.31139664347895        0.38311026838098        2.12216882870407
H            2.67657173813892       -1.05960632266905        0.56775348723043
C            1.34804308462074        1.02917329328116        2.88588216206684
C            3.59855525192372        0.90004743660553        2.06828392480480
C            1.66728244375206        2.18089440415538        3.58201470498185
H            0.34685643947882        0.62731582737311        2.92444285302002
C            3.91844838970297        2.04806336626126        2.77194608624573
H            4.35110132873840        0.39950516099055        1.47603812610387
C            2.95312124562113        2.69172736517322        3.52764549509011
H            0.91234467851024        2.67665096821618        4.17408716065810
H            4.92299697631259        2.44177546052074        2.72833927593917
H            3.20347940237120        3.58807102273595        4.07549996148377
C            1.98282527336066       -2.08351118263372        2.32773290407445
C            1.93732878470777       -3.32727390807409        1.58971500429567
H            1.13140436162953       -2.02552515159513        3.00896442190913
H            2.90742600783411       -2.03570267860866        2.90948006697567
C            1.91213859853232       -4.31998124706499        0.92281808198939
H            1.87653200515419       -5.20660343175462        0.36434603190258
Cl          -0.22632586428303       -2.73007681912474       -1.30379534935759
Cl          -1.33632660377413       -2.59686113331236        1.79366293796126
O           -1.80541668178835       -0.47855253560276        0.21083939919069
O           -0.05829777656477        0.19674364325580       -1.78044939162536
C           -1.73032728876692        1.82719272485367       -0.43499737764211
C           -0.30943488519065        2.00632250164160       -0.39944701775088
C            1.79950830261807        1.37223339442645       -1.23326946279375
C           -3.58378296221624        0.41726001704163       -0.97582478193805
C           -4.42791545782988        1.48204572442174       -1.03137473469477
C           -2.60993383792821        2.90902843494275       -0.40126197944950
C           -3.94965806859058        2.76080826033765       -0.67640925730781
C            0.31088155695173        3.04662665500151        0.30229928567921
C            1.66881259109849        3.24748677688501        0.23362970060265
C            2.43122299652811        2.39911088336916       -0.56208598059927
H           -2.20331120661866        3.89038845350282       -0.21545022483781
H           -4.61809557909690        3.60373563990492       -0.66664725241181
H           -0.30093776256087        3.67703623774215        0.92615692136727
H            2.13991696342506        4.04097262835626        0.78789846832270
H            3.49560147446364        2.52658772624583       -0.66226676370293
N           -2.26046933847848        0.54803008376246       -0.61871802692545
N            0.46779530903209        1.15632427873689       -1.15347378787281
H           -5.44798215616994        1.34306128191136       -1.34959660453959
C           -4.05092709965909       -0.98317451209176       -1.27155858074246
C            2.55200964711952        0.44500104292533       -2.15500515485352
F            2.45367275006347       -0.84488947181945       -1.82633389789075
F            2.16211233126033        0.56703344840555       -3.42784137010759
F            3.86903267903026        0.72582579263606       -2.13934057304548
F           -3.19226560678274       -1.67323842257643       -2.02316107861480
F           -5.21859009656132       -0.97113317337508       -1.93492000170706
F           -4.26862307666218       -1.70501484642205       -0.16037665267669
