51
 energy: -111.946988657195 gnorm: 0.000444998609 xtb: 6.5.1 (b24c23e)
Si          -0.02888786839249       -1.42431928424041        0.54747443590126
O            1.62675013048484       -2.08592163051427        0.17968886255501
C            2.46843884366509       -1.72026094893375       -0.69764053498157
C            3.86374559037550       -1.95199876887003       -0.56296332995899
H            2.10518302181835       -1.26901118990876       -1.62148746668707
C            4.38694629578075       -2.54785449811292        0.60048387492555
C            4.74558790583056       -1.58979888279974       -1.59824099531009
C            5.74031508478608       -2.77239419556933        0.71525726744898
H            3.70268858077705       -2.82146474969097        1.38860885847926
C            6.09675889621784       -1.82089349655447       -1.46956356945641
H            4.34763852239446       -1.13000665046478       -2.49035359670504
C            6.59972117075166       -2.41215260313028       -0.31604257291614
H            6.13684669967864       -3.23131430058223        1.60845302290615
H            6.76994823815717       -1.54259079067874       -2.26663023744817
H            7.65998718233105       -2.59180961107616       -0.22221291505098
C            2.79563499750170        1.15772688382677       -0.04406463827344
C            1.80898898386763        0.69863697287025        0.66125414261409
H            2.63619580682963        1.88343969555575       -0.82541205765957
H            3.81801355192984        0.89554394064470        0.17316702390082
C            0.80740204849601        0.13872392279886        1.25419026668600
H            0.40313986740006        0.53412920604007        2.17208467750363
Cl          -0.52416319137592       -1.41150190640668       -1.47056812005816
Cl          -0.30201749865144       -2.93434234755817        1.85383630394465
O           -1.74679188978969       -0.79404089882875        1.00986103268875
O           -0.64990584504275        3.04088345645015       -1.17367568042591
C           -2.35144814204989        1.07623345312651       -0.29195470507101
C           -1.62480779138743        1.94629755242064        0.59769180748173
C           -0.16095085766570        3.76217256845279        0.91429851851714
C           -3.46165287279196       -1.01298304062052       -0.53793793637933
C           -4.07364521092316       -0.59836535242326       -1.68682657657915
C           -2.90317418468331        1.48300459587648       -1.50424570128330
C           -3.74446817457271        0.65924913628351       -2.21763304308060
C           -1.76037511348984        1.84573326887783        1.98585972990736
C           -1.10443404791186        2.70883185963584        2.83534498070485
C           -0.28317076544611        3.68753875083562        2.28693054004458
H           -2.65907485222154        2.46866011190993       -1.86730210936340
H           -4.17056250446661        0.97976862590784       -3.15242308024860
H           -2.40564043062913        1.07787318063106        2.38131082678086
H           -1.22682242918827        2.63224084752225        3.90244704924785
H            0.25470540508546        4.38519238529476        2.90673744815657
N           -2.57012657311336       -0.22511688754580        0.12311761888839
N           -0.81015132827027        2.92529685924839        0.06534214645632
H           -4.78773659147251       -1.24096826910032       -2.17487586769084
C           -3.75708882627444       -2.35813547089239        0.07770208347335
C            0.70841184164463        4.80191478782821        0.25122009201221
F            0.01562348601574        5.63170773169274       -0.53695486202657
F            1.31461334878147        5.57795552208410        1.16665686204941
F            1.68949771560242        4.27321836325161       -0.48900639328232
F           -2.80231619915528       -3.26837542425631       -0.13263238869527
F           -4.88357107690585       -2.87717570012606       -0.44030605910738
F           -3.95598095026263       -2.28038178012507        1.39754596435155
