63
 energy: -99.369966593541 gnorm: 0.000568610053 xtb: 6.5.1 (b24c23e)
Si           0.12841450486247       -0.42849070874298        1.20460011018964
O           -1.40957700907297       -0.58896623882072        0.68165370428538
C           -2.12771759437282       -1.75110541548157        0.32548929474180
C           -1.70577052900636       -2.18249729921611       -1.05596113830452
H           -1.90341155267584       -2.54457368683913        1.04652418209948
C           -1.72654348271654       -1.26281283470208       -2.09676576833036
C           -1.23902169273175       -3.46698576702960       -1.29351364363350
C           -1.28578255399656       -1.62005226716118       -3.35760386947789
H           -2.07918688777924       -0.25786469476556       -1.91349870266485
C           -0.80565579131540       -3.82660121997681       -2.55788747141590
H           -1.19922762137262       -4.17713812374795       -0.48161718572171
C           -0.82624527265653       -2.90510952753345       -3.59106024331849
H           -1.30070290111716       -0.89315944387087       -4.15749610859665
H           -0.44058345577026       -4.82758837563130       -2.73443225470318
H           -0.47998868794419       -3.18562152702897       -4.57530748287478
C           -3.62863375691309       -1.42438845012084        0.38272631460654
C           -4.00447410087719       -1.01546248288278        1.71917581993055
H           -4.19116422335213       -2.31555407908410        0.09266744081974
H           -3.85171543169232       -0.62079151779282       -0.32416285859638
C           -4.25455377409272       -0.66567915802925        2.83568228477082
H           -4.49536068710753       -0.37212387190832        3.81332460815605
Cl           0.60402107601026        0.19048441039168        3.10537931506767
Cl           0.51069285062779       -2.50716395710557        1.60301026271499
O            1.32249801823714       -0.59432024778467       -0.00190895093836
O            0.03252652675649        1.35153167897932        0.84568696770637
C            1.62338513490544        1.30459580838467       -1.40194388242749
C            0.25118679779868        1.66541591586666       -1.45801239481197
C           -1.79212965263781        2.19692167304658       -0.31067081589274
C            3.45669235777122        0.28085635314265       -0.21352611068549
C            4.35480099506895        0.98114157305908       -0.97279577877318
C            2.56449624685455        1.93139424092186       -2.24838265228072
C            3.90417439722141        1.77316327302026       -2.04960669921197
C           -0.35175683462661        2.07093358772236       -2.66932472135038
C           -1.64197920310260        2.51236255650919       -2.69543347568218
C           -2.36780729273439        2.59461508882027       -1.49432435670262
H            2.20017330851785        2.60053680743921       -3.01012930483044
H            4.61890355378004        2.27573167946018       -2.68088922785645
H            0.21763158671815        1.97749890182473       -3.57901051585825
H           -2.10945422757595        2.79599553976010       -3.62508661036223
H           -3.37551212307564        2.96878854524301       -1.50255005605161
C           -2.46738952609857        2.30917683079641        1.02684616365512
N            2.13299826731233        0.38940017686341       -0.49496140339763
N           -0.52491367942620        1.73245277787080       -0.32021191218383
C            3.85450827625845       -0.66226002730793        0.88698004426288
H            5.40646198691184        0.91329596991814       -0.76076476438162
C            3.97369801235707       -2.08342950627715        0.32267868053232
C            5.15178801889044       -0.24363591148421        1.57508474938545
H            3.05862061005754       -0.66333860752433        1.63646825475989
H            4.25842463480030       -2.76664676599650        1.11773060978558
H            3.02038606556257       -2.41307673905899       -0.08061307523970
H            4.72643736786338       -2.11851821460343       -0.46279515695391
H            5.28720975103032       -0.84461436542210        2.47024314123996
H            6.01270297168420       -0.40325302598176        0.93018304429115
H            5.11516133729836        0.80275030902107        1.86847243191261
C           -3.97622433743911        2.50918846757051        0.93166342581680
H           -2.27538065471565        1.38128665637540        1.57229213756648
C           -1.82931908839262        3.46665516620943        1.80728490341217
H           -4.44038789320327        1.73914333783550        0.32153635572410
H           -4.40397512488677        2.44387520618102        1.92817748749633
H           -4.21987604432933        3.48765972643095        0.52263391790824
H           -1.94974735582850        4.40307169829247        1.26465647172218
H           -2.31127295647470        3.55974342005852        2.77633736156487
H           -0.77148465404242        3.28166768189725        1.96966610738476
