63
 energy: -99.366459952997 gnorm: 0.000918631972 xtb: 6.5.1 (b24c23e)
Si           0.03344373947871       -0.30140403983516       -1.19144192284226
O           -0.84386121270368       -1.35188631596584       -0.32346255058667
C           -1.62925870108985       -1.21012708540433        0.83634348551905
C           -3.09414856294648       -1.29724671477143        0.49023228827525
H           -1.42505415368680       -0.24170465420827        1.30152755895924
C           -3.51882870507444       -2.00985343231683       -0.62182081621886
C           -4.03108348644328       -0.65385269545552        1.28914430459359
C           -4.86582402580277       -2.07401768373809       -0.93293349547426
H           -2.78520541878252       -2.49396994548266       -1.24779130160499
C           -5.37717746943976       -0.72415171679603        0.97988374283256
H           -3.70078532849424       -0.09317130802372        2.15299378699166
C           -5.79678488106554       -1.43362246650004       -0.13328636169331
H           -5.18814079439893       -2.62449113409142       -1.80418397774369
H           -6.09971830281100       -0.21901074634208        1.60460402981859
H           -6.84764935321049       -1.48212227085309       -0.37815257655336
C           -1.21620096832496       -2.32133263665136        1.82391602839908
C            0.05318200401020       -1.98825366444937        2.43158063292617
H           -1.98107919320625       -2.42359507376481        2.59784668294725
H           -1.13549786289498       -3.26162898343493        1.27388512903039
C            1.09144814956305       -1.63002553119928        2.90811288209485
H            2.00774980559345       -1.35590812951204        3.33933860786235
Cl          -0.68039173601592        1.16515164396769       -2.48158437682557
Cl           0.22329320545225       -1.75135827836486       -2.72725487619659
O           -0.00657718547040        0.88602740044691        0.23532761620393
O            1.73322502908987       -0.26020602697633       -1.12156900483275
C            1.84587937722938        2.29513317640807        0.19006005572282
C            2.71069418288970        1.20336202070567        0.47459769526164
C            3.18716803130006       -1.16371147178930        0.43779733990496
C           -0.38370291589855        3.15509023001281       -0.05431150978394
C            0.10815740330575        4.43316760385214       -0.16542930549863
C            2.33916421918923        3.61308225542511        0.08145043680098
C            1.49232132484809        4.66447268498257       -0.11636200273435
C            3.83201124872693        1.38284154312722        1.31343052970864
C            4.57272488904612        0.31934909657142        1.73728080717293
C            4.21387564317860       -0.98178528774363        1.32535534293391
H            3.40608376241368        3.76102181955407        0.10609091759342
H            1.87508541068096        5.66586601960083       -0.23113516466839
H            4.04613965433919        2.37708147127682        1.66958026350604
H            5.40922805245017        0.45970669655754        2.40287270685644
H            4.76103060402694       -1.83060394158459        1.69427571392955
C            2.81771209730639       -2.49923467021464       -0.14297778646570
N            0.47935437623667        2.12978102626244        0.09987458857832
N            2.50474175516994       -0.07921707443460       -0.00833977607550
C           -1.85778651479480        2.86261821344909        0.02319352640612
H           -0.57282101069972        5.25599240185780       -0.28881867004179
C           -2.32892133848672        3.13650650987403        1.45685301094524
C           -2.66809643602685        3.66992857849101       -0.98707222031439
H           -2.01544561215701        1.80437284169672       -0.19009822930661
H           -3.38554283660317        2.89724264131036        1.54518813002356
H           -1.77480858401612        2.52554058887472        2.16661777086674
H           -2.18448559523335        4.18377614267368        1.71452823254850
H           -3.69769666271484        3.32169078380696       -0.97941343391461
H           -2.66705202864948        4.73004004315197       -0.74684815999223
H           -2.26433020036437        3.52649716972221       -1.98515834911267
C            3.15121779380415       -3.66517574291444        0.78392645198654
H            1.73970170889432       -2.50363985845736       -0.32218930268976
C            3.52253809642041       -2.66955559094215       -1.49534293070754
H            2.73051009275599       -3.50512446136196        1.77361287956950
H            2.72133525954065       -4.57525056503298        0.37392502248404
H            4.22564291940931       -3.81204619554375        0.86619280123166
H            4.60223189566577       -2.60746390916047       -1.37182199950087
H            3.26867803320821       -3.63766844984348       -1.91680933787473
H            3.19602131226948       -1.90477585049453       -2.19348756122905
