63
 energy: -99.362424103077 gnorm: 0.000610880524 xtb: 6.5.1 (b24c23e)
Si           0.01265525286082       -0.28336415121360        0.39287188300766
O            1.36311298473489       -1.06492693719719        0.79856667992155
C            2.16707735593009       -2.04662831155613        0.19555970223212
C            3.47689588001875       -1.43652179626759       -0.23467727712978
H            1.65100978814133       -2.46562487673376       -0.67566526845733
C            3.97264736569459       -0.30925771887235        0.40569554565735
C            4.20278689452930       -2.00558937248892       -1.27299191127076
C            5.17423528031957        0.24788962299871        0.00542669185494
H            3.40474160264344        0.12927367515811        1.21213542677896
C            5.40865126781485       -1.45304057945335       -1.66516504154337
H            3.81639000742730       -2.87961367390653       -1.77795162507408
C            5.89560533880882       -0.32335292110374       -1.02875792697371
H            5.55038030268544        1.12844131980898        0.50612300619160
H            5.96724604150017       -1.90140427640341       -2.47387309671785
H            6.83464033740479        0.11042255796374       -1.34030074139601
C            2.39371872340596       -3.16692629904648        1.22905325440289
C            1.14194779525453       -3.82560174655167        1.53237784059055
H            3.10885324855964       -3.88888505677114        0.82734154527042
H            2.80343617732371       -2.72270368641502        2.13962092624997
C            0.07563033037224       -4.32441986937065        1.74706091418124
H           -0.83889334975531       -4.79016222640270        1.96208133513210
Cl           0.28358650273203        0.84050640187013        2.20644546866389
Cl          -0.40286475188190       -1.53467664729065       -1.38951517301074
O            0.03092770736262        1.04437364621397       -0.67381777055871
O           -1.63898584807344       -0.29636122958362        0.84878940269538
C           -2.00683510608534        2.19126805636916       -0.40860041282179
C           -2.81015424378410        1.03911399649640       -0.67742865524757
C           -3.36863101865873       -1.28700670245512       -0.35336967176164
C            0.11858843446294        3.27208689578919       -0.02136538450841
C           -0.50918195794907        4.47677732137242        0.15817152667182
C           -2.62928862703536        3.44913385690799       -0.26923218916918
C           -1.90665418274580        4.57127714013587        0.01665461332358
C           -3.93099830269342        1.15280675998585       -1.52565182742249
C           -4.72260071436784        0.07546453202807       -1.80228973025837
C           -4.43224084210246       -1.16748854749527       -1.21008321238811
H           -3.70469148694466        3.49067871462604       -0.32732862207056
H           -2.39742992419808        5.52096189065225        0.15560093612765
H           -4.10976723852224        2.10148424541829       -2.00481946738345
H           -5.55537383095044        0.16482368680611       -2.48108628743293
H           -5.04414320563977       -2.02343695121433       -1.42947693922044
C           -3.03807724095384       -2.54710783481230        0.39599149759197
N           -0.62573435068236        2.18630072141419       -0.33212567807525
N           -2.61298352157926       -0.19800096708123       -0.09384994591431
C            1.60944748037563        3.08985350418632        0.02528851284497
H            0.06563847002924        5.35058818052890        0.40512406443799
C            2.16514483629943        3.11389815808052       -1.40430384978496
C            2.30452181411717        4.12829715325826        0.89989547641258
H            1.80924079739034        2.10493965105973        0.45178891627156
H            3.24020904690120        2.95627619344100       -1.38083739193135
H            1.71768361401487        2.32337994575770       -2.00076436056011
H            1.96031450321499        4.07302962280727       -1.87653684981028
H            3.34888969462553        3.85156716665447        1.01746182096741
H            2.26855539112728        5.11835289445413        0.45124779659423
H            1.84577810213138        4.15876313659263        1.88422315161090
C           -3.47978151087328       -3.80516661421842       -0.34559219964444
H           -1.95338608691153       -2.59370990689568        0.52131906638095
C           -3.67837901130683       -2.46786534005601        1.78788474966365
H           -3.10323759253046       -3.79155691504937       -1.36476866450500
H           -3.07204228653020       -4.67974340039752        0.15436905166263
H           -4.56291345034576       -3.90225836951045       -0.36047452259595
H           -4.75990699543305       -2.37571607982959        1.70545489647689
H           -3.44854806167980       -3.36814507335909        2.35132030668227
H           -3.29088363000751       -1.61275856983397        2.33586068808238
