63
 energy: -99.369632580401 gnorm: 0.000333044582 xtb: 6.5.1 (b24c23e)
Si           0.34999644426114       -0.98995265649933        0.57915278445737
O           -1.25603472461024       -0.77506402351860        0.39168263998204
C           -2.29669297102181       -1.68793079928519        0.13494250794584
C           -2.99244880342347       -1.32135631905314       -1.15034331801018
H           -1.87849969530236       -2.69692458520090        0.05545695785983
C           -3.24077411101953        0.01046685451509       -1.45437151387802
C           -3.40671252475796       -2.30827415659366       -2.03417157713143
C           -3.88905096258175        0.35228315603605       -2.62740748650171
H           -2.91151201315699        0.77932635153275       -0.77106031753729
C           -4.06441152403347       -1.96649198436699       -3.20254836287124
H           -3.20515874645603       -3.34467594736631       -1.80634976447474
C           -4.30633456417789       -0.63624566293178       -3.50212728959814
H           -4.07095171467935        1.39260724439247       -2.85694179086728
H           -4.38360437955285       -2.74053026345364       -3.88483333740746
H           -4.81554940617484       -0.37066725453852       -4.41702060926181
C           -3.29802036588047       -1.65538823007175        1.30835986667824
C           -2.60773434523743       -1.88816065804983        2.55885220638071
H           -3.79042218068888       -0.67978495268609        1.33622603713765
H           -4.05395859670450       -2.42698090133997        1.14437168914348
C           -1.96764930057763       -2.04857979477543        3.55708074038361
H           -1.41560071215844       -2.20559140732285        4.43481817432356
Cl           1.26984995459633       -1.39972637774802        2.37079124378966
Cl           0.45631346655679       -3.01908069359375       -0.12946834500401
O            1.26521099746902       -0.61618972306817       -0.80885449945302
O            0.49051634521282        0.74241422785862        1.11558078706256
C            1.61416650421815        1.70279404661838       -1.20735969038921
C            0.33580876207381        2.12694994071751       -0.75828701897892
C           -1.32773830104836        2.17328682137047        0.97265452902739
C            3.43995501745271        0.13004297176975       -1.09071155646447
C            4.28660288759276        1.05528623738422       -1.63890783396860
C            2.47405817244978        2.60245547624840       -1.87551029862107
C            3.78277626224032        2.29052434477944       -2.09733212723467
C           -0.40191763815528        3.10709651379391       -1.45888836113803
C           -1.56826496476721        3.60045628295067       -0.95319874558487
C           -2.02617353258469        3.14490929428628        0.29490003982177
H            2.09139657164452        3.57434178221985       -2.13971003992507
H            4.44211163362297        2.99103700754565       -2.58359340617861
H           -0.04140906973288        3.42497409368553       -2.42292697175926
H           -2.14028724808493        4.33317436023504       -1.49981703351594
H           -2.92684882132132        3.55288155003777        0.71695675810806
C           -1.71864287311285        1.65641017132530        2.32830270638061
N            2.12294942551242        0.43606593625412       -0.96703885592452
N           -0.19354259116669        1.68074140853788        0.43367362779803
C            3.87369376967908       -1.24624520377145       -0.67032710665806
H            5.33365255864448        0.83320588498415       -1.73865041890603
C            3.66365523808417       -2.22506230494179       -1.83222651886310
C            5.32342492637143       -1.28068550007445       -0.19169256955032
H            3.23547386850955       -1.56448233455558        0.15813219088473
H            3.98058665537412       -3.21933780722175       -1.53092414226612
H            2.61285594008588       -2.27305618871298       -2.10253764347437
H            4.24307218381539       -1.91519160455979       -2.69997254098701
H            5.51888968952041       -2.24207694786063        0.27551204184794
H            6.01787208688881       -1.16273158577713       -1.02021859459841
H            5.50846146924020       -0.50021054772210        0.54239494033398
C           -3.17187475573829        1.94815194294045        2.69056751565065
H           -1.56865297193056        0.57360125888768        2.32765370406850
C           -0.77776346695683        2.25758017580759        3.38083079364269
H           -3.84772915398834        1.64731659584237        1.89319179445649
H           -3.43282941410990        1.38889738450590        3.58557588237717
H           -3.32108152495535        3.00598681257894        2.89735219547132
H           -0.84426427371950        3.34438019514376        3.37684796954574
H           -1.05686363444690        1.89285326590634        4.36536447790140
H            0.24901004690692        1.96179982596876        3.18555988452749
