63
 energy: -99.281675234076 gnorm: 0.000342987689 xtb: 6.5.1 (b24c23e)
Si          -0.28046823920962       -0.86188796029399        0.58422860688128
O            1.38766799491310       -1.35054554609021        0.23807105836145
C            2.00017989965901       -1.39743683082685       -0.87164830143719
C            3.41162306227422       -1.30318463722037       -0.96796617614610
H            1.42077522988446       -1.50364340252708       -1.78782516627179
C            4.20471753029229       -1.12765141677305        0.18405313064786
C            4.04611220107152       -1.36813111791359       -2.22364394800459
C            5.57133687409552       -1.01363666187004        0.07511130556687
H            3.70885505435674       -1.08529427109716        1.14242643341812
C            5.41467336590895       -1.25302574692865       -2.31628668105291
H            3.44396106884831       -1.50916171447123       -3.10859903711909
C            6.18375924873955       -1.07322935336124       -1.17194278612411
H            6.17423606262342       -0.87885868293938        0.96145957687648
H            5.89638415181115       -1.30323738475667       -3.28189188841769
H            7.25669306478621       -0.98329866967607       -1.25217351820259
C            2.63675365167410       -0.09489996320225        3.23473894396902
C            1.44278501616125        0.00017045352589        2.73270432400156
H            3.40545952965970        0.63619776748015        3.03816911191157
H            2.89878509448403       -0.90290226596028        3.89888896921061
C            0.27440964410621        0.06163547162536        2.18822490407837
H           -0.51712493363893        0.58745183759703        2.70421997264083
Cl          -1.02897016943671       -1.75563927469886       -1.31592836827057
Cl          -0.68900572900906       -2.67667882693892        1.65367061525479
O           -1.93350739820304       -0.08313041617021        0.89457473501467
O            0.07681399963960        0.63391794546018       -0.56730973059517
C           -2.59777765016183        1.35475038738490       -0.76337168482810
C           -1.55104097248781        2.27635156692324       -0.37080457555724
C            0.73841490673816        2.72611685306301        0.12646838104069
C           -3.74108330589325       -0.70183753758455       -0.41457898759094
C           -4.61549389930106       -0.38606591762633       -1.43440226467776
C           -3.50201624067036        1.69606894270071       -1.77061567728237
C           -4.50012794175001        0.82027590980074       -2.12378709350174
C           -1.85310329122858        3.62580283498008       -0.17442958051803
C           -0.87811135485679        4.51183705217731        0.20918106501685
C            0.43329351460456        4.04454080888976        0.36513332818790
H           -3.36658576839044        2.63103760501433       -2.29032664624320
H           -5.18240003607637        1.05767401030182       -2.92426968676289
H           -2.87778372302680        3.94115866109945       -0.29038539654256
H           -1.11146584617801        5.54804555510444        0.39089162890381
H            1.21277156324017        4.72524413001452        0.65845439143052
C            2.13482097739844        2.17138576319235        0.14524191492717
N           -2.76532708997932        0.17383372870744       -0.10424373990762
N           -0.24757176405392        1.86939416245725       -0.23835091757220
C           -3.89253131031306       -1.92068404142785        0.44427830580927
H           -5.39388099509148       -1.08296402395515       -1.69103085970144
C           -4.82571390364365       -1.56694100117686        1.60991410716507
C           -4.40629624748284       -3.12886774640781       -0.33247665070309
H           -2.91978415921267       -2.17966858309480        0.86505735502731
H           -4.93152258343044       -2.43106767505814        2.25901616351846
H           -4.40988978945768       -0.74986801982747        2.19463272690126
H           -5.80987620646349       -1.27672034358575        1.24461384052292
H           -4.32291620341569       -4.01133302494337        0.29536660656812
H           -5.44904168858460       -3.01368019569066       -0.62101968250451
H           -3.79978570158529       -3.28385982720286       -1.22039839064852
C            3.09072518238927        2.97079514598784        1.02360546974968
H            2.08048777067179        1.15096007210419        0.53252115731509
C            2.65012132699065        2.10778176975859       -1.29905062239664
H            2.68317596224223        3.09233416953149        2.02406630863754
H            4.03415674625636        2.43550645070774        1.09654528249062
H            3.29655473701513        3.95075768863411        0.59872519545449
H            2.67837374488217        3.10401264008613       -1.73730383297514
H            3.65250019783958        1.68781596338660       -1.31375508740040
H            2.00643476698168        1.47307873359661       -1.90247693753947
