69
 energy: -105.686834089524 gnorm: 0.000780172928 xtb: 6.5.1 (b24c23e)
Si           0.27694338132854       -0.68243867202011       -0.35553868073219
O            1.31538230992283       -0.02395685776930        0.72138572935281
C            2.07518065882497       -0.64670584079053        1.73177882428691
C            3.13921773004200       -1.57317822173630        1.19784707586097
H            1.39717085590556       -1.22203564959379        2.37462014192366
C            3.78878044483362       -1.31202400441803        0.00147339855613
C            3.49801646223308       -2.69493668933477        1.93479809421444
C            4.76919478836017       -2.17063234672719       -0.46380964425558
H            3.51131946395661       -0.44752374968007       -0.57950044872374
C            4.48371832215330       -3.54719613957467        1.47414467610508
H            2.98841465082205       -2.90768507142507        2.86374020198283
C            5.11997641630397       -3.28872929691659        0.27132713274790
H            5.25500477967146       -1.96472164171044       -1.40614493235531
H            4.74793357904970       -4.42229637113427        2.04975755123497
H            5.88191334460327       -3.96168861332012       -0.09381186870078
C            2.73693615993538        0.46883930918946        2.56580699263530
C            1.77790583527514        1.13255026532362        3.41917187840376
H            3.52327480226438        0.02630434108184        3.18311129006720
H            3.18987325597849        1.19108999180961        1.88210330468624
C            0.95870019146689        1.64348602818560        4.12616964561953
H            0.26111292230774        2.09647284476312        4.76455498278548
Cl           0.89449227939039       -1.06921909727188       -2.28788969974973
Cl           0.48521971634037       -2.74558658878395        0.27250968045308
O           -1.32373469723323       -0.91542715341490        0.14900578854327
O           -0.12031427504113        0.96878205956640       -0.97762192216865
C           -2.38655135617247        1.14869276608857        0.65131992189141
C           -1.21574969264141        1.94153915816906        0.82797103931661
C            0.71717875336995        2.98694162716608       -0.13699170154300
C           -3.59924173418740       -0.70868840036630       -0.31604077213805
C           -4.78053903699299       -0.09862209389810        0.01503701148694
C           -3.61748862284548        1.69760326309401        1.07247285636652
C           -4.79795598415238        1.09149846550595        0.76885955894948
C           -1.12981408033845        2.82791062367102        1.92390096149412
C           -0.12795913930638        3.74747171789357        1.99535240742079
C            0.76013976109721        3.87093074490048        0.91599310806420
H           -3.60899144072975        2.65117962711241        1.57309781829796
H           -5.73889858264038        1.52671280665336        1.06353357280511
H           -1.84166449545057        2.72268981579376        2.72535361341316
H           -0.02537168835672        4.39604263369561        2.84992351571525
H            1.48711137742351        4.66067909838814        0.93371457840244
C            1.59884511384029        3.16228140355480       -1.36553749773515
N           -2.42967803084778       -0.10698298804448        0.05629727433353
N           -0.19447977476099        1.98571824395112       -0.09612994523827
C           -3.57310956263247       -2.03823156987008       -1.05493967184622
H           -5.71801127173232       -0.52880477401061       -0.28121630817077
C           -4.96079338206240       -2.38175216375696       -1.61640724741721
C           -2.59751077637754       -1.97942002225251       -2.23996804438788
C           -3.17453468481722       -3.15980938073297       -0.08295030978556
H           -4.88516723562781       -3.30299528897299       -2.18872965174336
H           -5.68575047836396       -2.55177823757622       -0.82424880495808
H           -5.32326575921728       -1.60079232639548       -2.28111206738864
H           -2.83988224719638       -2.76238104410079       -2.95339788170040
H           -2.66013551924152       -1.02089111666443       -2.75137962038659
H           -1.57601391321514       -2.13959002608786       -1.92201539985024
C            2.66172358954760        2.06247437345192       -1.45032382212198
C            0.71687741442244        3.14278311910396       -2.62415103818164
C            2.32503198869192        4.51417805614038       -1.33435449381425
H            2.20603959874661        1.10261507330844       -1.65840438879844
H            3.35669601559279        2.28859270349551       -2.25589429674033
H            3.21820125299330        2.00415081329102       -0.51722405391368
H            3.05432595111550        4.56058746113770       -0.52910081704050
H            2.86245288975801        4.64180288434442       -2.27081676693608
H            1.62401239657321        5.33996640892117       -1.23605261652324
H           -3.21746119692266       -4.11404183781599       -0.60101585287005
H           -2.16487145675507       -3.02402453956395        0.28910655615784
H           -3.86097114081167       -3.18991312282591        0.76120228575487
H            0.24227101329488        2.17642304460369       -2.75638099787347
H           -0.05104302882616        3.91200394608841       -2.56151343132305
H            1.33217881809175        3.33850721911951       -3.49828977222992
