69
 energy: -105.679212243936 gnorm: 0.000762799048 xtb: 6.5.1 (b24c23e)
Si          -0.33852051875416        0.41086324178254        1.29774128147442
O            0.05195372795030        1.86734732994009        0.68731583531931
C           -0.09105262180221        2.49754612097063       -0.57166769126823
C            1.13384406363612        2.20046544240703       -1.41077118542135
H           -0.97066214990458        2.08878602460316       -1.07897634481202
C            2.23684237442702        3.04397785193056       -1.44931596445841
C            1.18249855320654        1.01006810452751       -2.12816723017326
C            3.35201208907262        2.70929044662402       -2.19976755315701
H            2.24000339212402        3.96614942848976       -0.89082534285876
C            2.30231874550128        0.66470519575037       -2.86224898870380
H            0.33410104895838        0.34375316778219       -2.10364493465948
C            3.39095933696554        1.51916417020832       -2.90564337627455
H            4.19914011100443        3.37908269105446       -2.22427593297897
H            2.32250609506294       -0.27044143599400       -3.40380330580877
H            4.26527125956613        1.25746455887695       -3.48356839502256
C           -0.31456925571823        3.99558752277785       -0.31573428783443
C           -1.63417379895539        4.23101682029833        0.23085271335059
H           -0.20179220000549        4.54486907156102       -1.25438426357990
H            0.42581373331967        4.34351396084075        0.40801940629649
C           -2.72843919361472        4.39196253618897        0.68672015059160
H           -3.67962454082762        4.55033048340729        1.09875779058632
Cl           0.55356296382207        1.01510760255646        3.12848874963409
Cl          -1.99628583903968       -0.39158848013690        2.31668585900185
O           -1.09714616136229       -0.06290426508131       -0.29826621319153
O            0.83862920833701       -0.80836551927318        1.22029764031935
C           -0.98862882055110       -2.37054562105659       -0.37597999969479
C            0.43688317245106       -2.35472918807066       -0.52659577246315
C            2.67292474116019       -1.62669634654549        0.03105630504909
C           -3.10889003708953       -1.25482657308119       -0.56664566283844
C           -3.74192200072193       -2.47184266757463       -0.48570393610285
C           -1.65169395029765       -3.61000154665686       -0.33329743709365
C           -3.01424949037143       -3.66218144531553       -0.31623529504707
C            0.98646259009688       -3.27863349596891       -1.43577693758689
C            2.32596340428937       -3.30970623484491       -1.68095713111271
C            3.17140890999112       -2.46562758624257       -0.93316957539396
H           -1.05712242681854       -4.50425403337458       -0.23943350356862
H           -3.53444334393933       -4.59923256110134       -0.20352552409643
H            0.30699385775009       -3.90720635013129       -1.98867207171355
H            2.74320476925553       -3.96881488714223       -2.42425871490968
H            4.22769335406022       -2.51695988655939       -1.11375893893701
C            3.59831420027219       -0.86330727945484        0.96826817069386
N           -1.75991907489408       -1.22965486198024       -0.41671143880262
N            1.31779258883307       -1.55080678022648        0.18077118721070
C           -3.85372009870394        0.00839559353864       -0.97639825685479
H           -4.81147163215073       -2.53078756470546       -0.55262740621567
C           -5.33489278115316       -0.28418184532464       -1.25112695328826
C           -3.80634926796470        1.11774716822519        0.07916624351120
C           -3.22934046891817        0.49339309534083       -2.29644127191256
H           -5.81052645803593        0.62936979309707       -1.60008176675018
H           -5.45974432358321       -1.03892484731976       -2.02416915774518
H           -5.84676681668525       -0.60051493944602       -0.34613942312590
H           -4.17373530264718        0.74567342559451        1.03144234186673
H           -2.80560564700338        1.50356457695546        0.22761214355204
H           -4.43505160947203        1.94452539627734       -0.24370906818946
C            3.40948468753511        0.65188760066976        0.83862318038439
C            3.34457655903769       -1.32043547581810        2.41494979249153
C            5.07230344999618       -1.15573332695687        0.65041245230479
H            2.41146765770759        0.96746065817653        1.10966046067398
H            4.10277525767185        1.15432062333364        1.50801937683137
H            3.61681546504510        0.96877847284574       -0.18038797717196
H            5.33554958249476       -0.83376847410317       -0.35454364966037
H            5.69189615019827       -0.59682263549222        1.34722854829921
H            5.30692551342845       -2.21067195296290        0.77105237798298
H           -3.33715472934007       -0.26671490613382       -3.06907689804270
H           -3.73225230148705        1.39863184779778       -2.62725422337750
H           -2.17440993309403        0.71751080758524       -2.17730502349890
H            2.39025961180325       -0.96426893408880        2.78589090752678
H            3.37156965475669       -2.40676470007061        2.48036597853978
H            4.12210391427853       -0.91672018359026        3.05773513182000
