69
 energy: -105.680380629171 gnorm: 0.000926808671 xtb: 6.5.1 (b24c23e)
Si           0.12400297493482       -0.21715339611515        0.34722270701005
O            1.09206378759535       -1.29068288205267        1.07388218512197
C            1.80321341572183       -2.40565899898011        0.58355457900472
C            3.09704902833366       -1.94922173580388       -0.03967732690000
H            1.19537298462988       -2.92754332355654       -0.16394848055553
C            3.87851896863909       -1.00666221434678        0.61628970768155
C            3.51004365816606       -2.44176096420277       -1.26918944961635
C            5.05924144008889       -0.56241634168130        0.04918052987514
H            3.54417289622346       -0.61095925050462        1.56400424209064
C            4.69367108237400       -1.99882194069238       -1.83367981030592
H            2.89528311717468       -3.16174820008802       -1.78898087829812
C            5.46999810616900       -1.05941858786214       -1.17629919126458
H            5.65910149132616        0.17345225182762        0.56512781066940
H            5.00652198356735       -2.38268004040540       -2.79373993022860
H            6.39117385283747       -0.71127837917931       -1.62100462330135
C            2.06966673433000       -3.34568656682711        1.77202141642580
C            0.83197272842350       -3.90146444263821        2.27418518543233
H            2.73358266797395       -4.15033070114546        1.44403778009805
H            2.56035675264281       -2.77683016504329        2.56555154463053
C           -0.21430788015486       -4.33370382232748        2.66115548292823
H           -1.11891415114145       -4.72333075662364        3.02111612017475
Cl           0.25235308992740        0.92557155946293        2.18565740793777
Cl           0.17170914883157       -1.17959864800060       -1.61980114744707
O            0.22575323325276        1.18913022022759       -0.62565552182318
O           -1.53705618311202       -0.41206813974715        0.62906278517578
C           -1.71356314448558        2.35534339663793       -0.13901553592307
C           -2.56230137526126        1.29518800358669       -0.62095751720740
C           -3.43317262271897       -0.96078474647391       -0.61805252310788
C            0.43798180889354        3.43852750871967        0.02353166677076
C           -0.17852491763292        4.57043499076088        0.49762935497230
C           -2.32684178643455        3.54127870136403        0.29876992414495
C           -1.57362012160229        4.61816556827661        0.66840955035129
C           -3.62477519050113        1.67648577130462       -1.46047622303319
C           -4.50700205405638        0.75580067709223       -1.94458978472398
C           -4.41246315059466       -0.57624432767213       -1.49911963354137
H           -3.39999918998224        3.55164543024065        0.40225768672648
H           -2.03436280426497        5.50401599696255        1.07394702250524
H           -3.67705510184332        2.70817185160249       -1.76914397128046
H           -5.27590573639798        1.03571458843467       -2.64567006931372
H           -5.13822447692818       -1.28526417180740       -1.84890870018323
C           -3.43809707223692       -2.33457573058732        0.03836965761490
N           -0.33682485176205        2.35439075437008       -0.22197824153343
N           -2.49939989452812       -0.04002683776990       -0.25420963165480
C            1.91413592089443        3.40738957880088       -0.34335229901185
H            0.39892622184266        5.44173592447281        0.74178391443910
C            2.57220673809365        4.76926306687077       -0.08602939830159
C            2.69634284854957        2.36087921999060        0.46035033986185
C            2.02704571004377        3.11062953392771       -1.84884346093534
H            3.61025737979532        4.72187615565010       -0.40619958405531
H            2.08772910298566        5.56153854895857       -0.65180108333800
H            2.56018198432179        5.01589642317620        0.97242924305232
H            3.76252004709499        2.53682832067586        0.33870468455303
H            2.44403571726006        2.42462225261945        1.51520333065742
H            2.48783042220766        1.35415622739551        0.11611655826197
C           -2.13653841451487       -3.11050870776627       -0.20441100327671
C           -3.66460648660855       -2.13652080398884        1.54732277119309
C           -4.59153957836703       -3.19539105542398       -0.49498642817004
H           -1.33251308058526       -2.74868512935440        0.42621270897786
H           -2.29096477579268       -4.16060856405442        0.03157844568144
H           -1.82767356454879       -3.02980704127463       -1.24313687457396
H           -4.47908062588086       -3.38783620178388       -1.55899080184166
H           -4.57869192696301       -4.15320337923589        0.01942489541078
H           -5.55812327617688       -2.73409138441824       -0.30610970923412
H            3.07448322807035        3.12108645628338       -2.13974602762152
H            1.61925757034474        2.13480847486550       -2.09272684382710
H            1.49870823195869        3.86719784923728       -2.42687447287816
H           -2.84458036388910       -1.58962878871780        2.00141048061090
H           -4.59239278651800       -1.59511581026552        1.72549969403891
H           -3.73414249003752       -3.10828612538828        2.02888576423353
