69
 energy: -105.680273720167 gnorm: 0.000608811406 xtb: 6.5.1 (b24c23e)
Si          -0.04219440365110       -0.31405337696409       -0.39130944872521
O           -0.86225362066222       -1.61073669229742       -0.89813545764300
C           -1.33420281477625       -2.75980589975870       -0.22716101131121
C           -2.63754718048578       -2.44460423991985        0.45927022881076
H           -0.59162690436665       -3.07871689434010        0.51241114745283
C           -3.63633950813960       -1.77890024404077       -0.24003721586695
C           -2.84574857723674       -2.78443952612725        1.78809187332910
C           -4.82815624934558       -1.45624605290188        0.38294159111431
H           -3.46511642703644       -1.50113000997130       -1.26957505270658
C           -4.04062067619158       -2.46432522988664        2.40895332148276
H           -2.06457693749981       -3.28714543176236        2.33888009044270
C           -5.03302848153988       -1.79998697496684        1.70857519925184
H           -5.59816411842764       -0.93526077913568       -0.16751154721276
H           -4.19384817605692       -2.72777270648629        3.44527000423311
H           -5.96308806140630       -1.54655507970198        2.19649189153359
C           -1.51538422860494       -3.86807598856809       -1.27796688249976
C           -0.23962066781968       -4.25769848366087       -1.83767868549117
H           -1.99344650221248       -4.72936664519103       -0.80370238554806
H           -2.16079273296495       -3.49462644291488       -2.07623507832940
C            0.83447988418898       -4.54610875224058       -2.27825493193286
H            1.76458208623797       -4.81272743657384       -2.68251730074009
Cl          -0.35550104982684        0.50566985940810       -2.35871642608313
Cl           0.24660032902273       -1.05301440125776        1.67659727420955
O           -0.53040175779727        1.10699524740297        0.41895626966604
O            1.61830384216501       -0.10880655417973       -0.68094799681695
C            1.19632676983143        2.60777957026159       -0.00292632980330
C            2.20260692169194        1.76024824845907        0.58731127752113
C            3.51830983085278       -0.26540910433137        0.68158371087709
C           -1.10262649190224        3.22947000263360       -0.40796126862031
C           -0.67800371141676        4.43947982703588       -0.89886165534547
C            1.59974149877633        3.87873062501868       -0.44536716054523
C            0.68985393618727        4.76529030035802       -0.94476847740393
C            3.09371166961573        2.35734898276848        1.49551127368200
C            4.10838865635068        1.63740460624085        2.05672349853610
C            4.32940789806761        0.31642364809907        1.62437995581172
H            2.65417833462882        4.10400974959438       -0.44644828524479
H            1.00323483652382        5.71133442061067       -1.35484247858256
H            2.90642023310802        3.37721522761578        1.79120992261915
H            4.74642319350957        2.06981123076559        2.80991147771985
H            5.15920625588902       -0.22559672016015        2.03640202532962
C            3.85567607121015       -1.60282780938009        0.03778105004650
N           -0.15700024005148        2.32959563822099       -0.03728892430121
N            2.44796330139759        0.44411986916655        0.24030441161544
C           -2.57217054815537        2.93047182219980       -0.15060234981893
H           -1.38965233455622        5.16446976958967       -1.24524944960030
C           -3.45535520983998        4.11473120340684       -0.56515854972903
C           -3.06859922061128        1.69912249283558       -0.91766841201195
C           -2.75366673296642        2.71828081358665        1.36268658724542
H           -4.48954492569725        3.87926874832903       -0.32574562238290
H           -3.19049510158220        5.02148889225357       -0.02644464139009
H           -3.39300273324134        4.29334182399409       -1.63546924161678
H           -4.15501522015665        1.66757748965022       -0.88147372090940
H           -2.74883829893014        1.74029832107590       -1.95518380416239
H           -2.69627126543401        0.78082028651277       -0.47884984696166
C            2.74218268444915       -2.64470745675336        0.20811063644253
C            4.12125870764299       -1.34931478611259       -1.45652875714160
C            5.13394591425675       -2.19697274317382        0.64468505532901
H            1.90256233464487       -2.44959699943272       -0.44964579820138
H            3.12915679326404       -3.63085300972972       -0.03690983095545
H            2.38451880883600       -2.65679552219614        1.23398726545151
H            5.00026208335888       -2.41927153595056        1.70032590896510
H            5.36205703433312       -3.12955834090789        0.13426256171740
H            5.98603692756835       -1.53381840645847        0.51515907322527
H           -3.80432976329190        2.54011792227860        1.57722443951027
H           -2.18822282051715        1.86068986789754        1.71313872033775
H           -2.43163182704042        3.60109871293976        1.91267734810102
H            3.23259799908425       -0.98038363118257       -1.95882352821220
H            4.92440102491239       -0.62502281642089       -1.58309842312686
H            4.41850665983023       -2.28092149516908       -1.93094111463764
