69
 energy: -105.680968167591 gnorm: 0.000725365715 xtb: 6.5.1 (b24c23e)
Si           0.08783726007889       -0.41821985565891        0.14664409476906
O           -0.58944193330909       -1.87795049433169        0.27713214160735
C           -1.54111976838305       -2.57874672044641       -0.48780554924134
C           -2.93045858490430       -2.24657530871392       -0.00805611087636
H           -1.43991124395856       -2.30414431565682       -1.54348903667093
C           -3.16564193745452       -2.04463805289358        1.34571070545323
C           -3.98095418297980       -2.13364501668372       -0.90782700669934
C           -4.43574191235035       -1.72850959138973        1.79318320675955
H           -2.34176072402737       -2.11771506868784        2.03976646796312
C           -5.25195252519988       -1.82290738177480       -0.45809355967274
H           -3.79762051878739       -2.27944433301542       -1.96240338556997
C           -5.48146671342874       -1.61893531171185        0.89219859956218
H           -4.60875342897836       -1.56683915495178        2.84712690392862
H           -6.06431062120154       -1.73295149426453       -1.16447557853910
H           -6.47364928984569       -1.37149175199016        1.24111250914043
C           -1.25186385416370       -4.08180605238738       -0.32195839512553
C           -0.01036541988861       -4.43480052281524       -0.97500544291539
H           -2.07624114203822       -4.65292977607945       -0.75695611720233
H           -1.18293789374683       -4.30659110791126        0.74506387215136
C            1.02012607935968       -4.67447972731930       -1.53402842333314
H            1.92193119297866       -4.90750851749753       -2.01564753289193
Cl          -0.72332535981031       -0.00463757900129       -1.87927410412000
Cl           0.81571038399576       -0.69456641835076        2.15446451888730
O           -0.34911762846646        1.13578803681809        0.70061305391477
O            1.61046814689507       -0.22113661706030       -0.57594962782000
C            1.11869644759082        2.56513495771527       -0.39921219767087
C            2.29081110841455        1.90164896348279        0.11600184771884
C            3.75284718648840       -0.00949583244710        0.34843123560871
C           -1.25764849446374        3.00431722595400       -0.39786671666129
C           -1.04733384793037        4.08772696670501       -1.21488377110669
C            1.31357025532873        3.71826149746625       -1.17773464885246
C            0.24871381766720        4.44006780085153       -1.63487505312750
C            3.29951515088938        2.71529817965013        0.65886629648518
C            4.46134372378736        2.17169510801285        1.12520241421377
C            4.69059644717702        0.79487028597575        0.94781688510573
H            2.32168299869377        3.97294690628535       -1.46322244660049
H            0.38920030596348        5.28026832109033       -2.29505598198096
H            3.09735877551406        3.76909719914220        0.76494288134254
H            5.20479981007306        2.78206578865872        1.61100003511857
H            5.62601812192774        0.38510396058107        1.27790313777334
C            4.05766893597802       -1.44652076520520       -0.05013697171267
N           -0.18422383481463        2.24086781063839       -0.07101153982936
N            2.56395331027227        0.55027172159482        0.00504566137050
C           -2.60907353992882        2.72198991941141        0.24251300396387
H           -1.87326224654614        4.69325377223832       -1.53651841201474
C           -3.65377364542628        3.75648481328057       -0.19636545151277
C           -3.16046698146462        1.33724291036294       -0.11746988462444
C           -2.44100430645730        2.84383408364108        1.76715665349573
H           -4.58968536021267        3.54440769323515        0.31485325493512
H           -3.35356923907767        4.76758688372636        0.06852523457844
H           -3.83830594603522        3.69787366675879       -1.26597436540360
H           -4.20001437522789        1.26657317318294        0.19395099456913
H           -3.10586542507765        1.16808075196773       -1.18921852646186
H           -2.61582883505814        0.54478574346923        0.38207365755681
C            3.10105219994596       -2.45975614448003        0.59157129138494
C            3.97897954513160       -1.53756612143640       -1.58421834076219
C            5.48184651184899       -1.83977929118713        0.36595515265819
H            2.11822007088736       -2.43864435225819        0.13531869017671
H            3.50090372334618       -3.46267006400517        0.46301301922590
H            2.99082976469255       -2.26153690000847        1.65390866321293
H            5.59299967585688       -1.82093561277072        1.44703087430549
H            5.67567859007009       -2.85548961425023        0.02976487188668
H            6.22774013921113       -1.19330835953609       -0.09076229713114
H           -3.40299578656455        2.68459986628121        2.24750176337054
H           -1.74433457775588        2.10445012509044        2.14929227532241
H           -2.08073930401453        3.83664014342932        2.03186212180355
H            2.97417007246909       -1.33586117260270       -1.94110347793062
H            4.66605051494184       -0.82867967896428       -2.04394374898293
H            4.25718016150252       -2.54021119695353       -1.89812328827886
