69
 energy: -105.689079270035 gnorm: 0.000412931757 xtb: 6.5.1 (b24c23e)
Si           0.14263904775430       -1.32213093108268       -0.36479704308511
O           -1.25186842029140       -0.64100737186511       -0.86364937628627
C           -1.80140848034852       -0.41141858916488       -2.14578714807530
C           -1.54271576883675        1.04270995702918       -2.47574060719217
H           -1.27604713785800       -1.04113411911271       -2.87517893738381
C           -2.51487583601088        2.03050471021905       -2.41209262632854
C           -0.23372046657445        1.40685525816795       -2.77768681985705
C           -2.18550380219451        3.35426983271251       -2.65470452405652
H           -3.53853799427910        1.78104280721044       -2.17935307010880
C            0.09786141934201        2.72963908813138       -3.00208169779197
H            0.52441933947115        0.64029800571899       -2.83462875606358
C           -0.88012669546205        3.70916332996787       -2.94319371757665
H           -2.95474372250927        4.11207540671388       -2.61328451562525
H            1.11980476845185        2.99626753965861       -3.22948288264493
H           -0.62588234107162        4.74339578657407       -3.12549029535287
C           -3.27799778487167       -0.82023437008596       -2.11311836969709
C           -3.37753077466025       -2.24519159524730       -1.86964875862438
H           -3.74171830314584       -0.57271660050212       -3.07117396212619
H           -3.78896958878552       -0.28379401496590       -1.30866604484152
C           -3.39670535290521       -3.41781283465803       -1.63509424367195
H           -3.42781084458371       -4.44852313416088       -1.44539974403977
Cl           0.20064700725509       -3.14782204617038        0.59229418550485
Cl           0.76879758425380       -2.16048214554893       -2.25312461040157
O            1.54084876795186       -0.38262831014781       -0.53996864063928
O           -0.14568591163217       -0.62345193461828        1.28575485670739
C            1.25385588517784        1.69153214869666        0.58661985453645
C           -0.15548983969075        1.64344838031550        0.78966812016497
C           -2.05848526961199        0.60517241064327        1.82625750103222
C            3.42374299391872        0.63603840219060        0.38013629099741
C            4.02508359078729        1.83111941338516        0.66923550921652
C            1.90667864536190        2.92916468733472        0.77575194688956
C            3.26552816135567        3.01082967574626        0.80323078603741
C           -0.94345929241261        2.78297642057327        0.51844794492820
C           -2.25710708351586        2.81805580589673        0.87667568191641
C           -2.79651353716073        1.74482529128792        1.60070916858808
H            1.30669808262463        3.80156316994355        0.97197702760807
H            3.76242019719074        3.95271763595558        0.96921133938186
H           -0.50572250416864        3.59375844217624       -0.03851558594805
H           -2.87569777909015        3.66444784641906        0.62543072876454
H           -3.80747287745996        1.81496325636122        1.95592643505931
C           -2.60791503186269       -0.55120414727929        2.64908144006982
N            2.06025233628862        0.60446902904216        0.26577738125012
N           -0.79745151673451        0.55263854338754        1.33627277787377
C            4.22824698884425       -0.63982318505886        0.18372641756506
H            5.09080899768048        1.89226384014896        0.78290408363353
C            5.69403884475830       -0.43738899968797        0.59491571191960
C            3.65891382961079       -1.75068342687585        1.07624574848108
C            4.22254565460913       -1.06071816077076       -1.29396941946681
H            6.20951498376062       -1.39168074997114        0.52035158590918
H            6.20228980608886        0.26209220169917       -0.06424583767342
H            5.77565214104580       -0.09312654931486        1.62335670285406
H            4.27338315347949       -2.64196582489135        0.98082036013990
H            3.66406027424550       -1.43753190198568        2.11889256443831
H            2.64771609141650       -2.02151530954010        0.80262681385664
C           -1.56949757897280       -0.98515403473681        3.69505280769038
C           -3.87144223008364       -0.12628971775061        3.41232979679952
C           -2.98354641217936       -1.73425328142715        1.74930839080680
H           -1.28175486923890       -0.13906521464449        4.31729271285608
H           -2.00083447550950       -1.75209546098465        4.33290239576111
H           -0.68363284887653       -1.39795675793153        3.22543730567191
H           -2.11583917092349       -2.15095200122593        1.25565787802672
H           -3.43704617304793       -2.51640399478417        2.35283906128545
H           -3.69674042623078       -1.42803803863481        0.98829917940138
H            4.88416281289047       -1.91272503097716       -1.42680594732344
H            3.23305953151557       -1.34622700776529       -1.63105277401277
H            4.58086369285389       -0.24374222297069       -1.91744085444420
H           -3.69160044069495        0.75920863522123        4.01810259929590
H           -4.70516474638299        0.05848376509019        2.73954500029131
H           -4.16380430010491       -0.93504270707550        4.07750371713028
