69
 energy: -105.687650377354 gnorm: 0.000563431376 xtb: 6.5.1 (b24c23e)
Si           0.23034405117834       -0.98511013147069        0.83872695012596
O           -1.32929380283744       -0.94877200819425        0.35743930888173
C           -2.22979715589870       -1.98629423739668        0.03340859331123
C           -2.88334652089328       -1.64806658359010       -1.28267452510264
H           -1.67362969484689       -2.92516741201180       -0.05985222893200
C           -3.61710907580255       -0.47717303566909       -1.42296536159273
C           -2.74061142861202       -2.49130380653482       -2.37623131635948
C           -4.20776112062756       -0.16065708696882       -2.63270533398940
H           -3.71654303875735        0.19388455857967       -0.58269839570328
C           -3.33129987271464       -2.17434821165198       -3.58714294076114
H           -2.16271598671385       -3.39840561556073       -2.27527014853085
C           -4.06802043013216       -1.00947168704493       -3.71743984673104
H           -4.78420717954483        0.74821619312128       -2.72794269092903
H           -3.21512881372124       -2.83834772796552       -4.43126639589647
H           -4.53115320337240       -0.76316910339553       -4.66178521160194
C           -3.27563211925488       -2.15052193009131        1.15102661348289
C           -2.62992996597305       -2.47103287960524        2.40618075347213
H           -3.96071128823646       -2.95343795701670        0.86590713598107
H           -3.84514920931269       -1.22464219105510        1.26248280190997
C           -2.04573715222829       -2.70569071181747        3.42323574629669
H           -1.53304638056834       -2.91830966046747        4.31272127162857
Cl           0.75953464091288       -0.89753201797877        2.83226975084022
Cl           0.55763978728021       -3.10986438019256        0.71000910780996
O            1.40150493024356       -0.93677880709071       -0.38581965001409
O            0.22680312522695        0.82524057530422        0.92525678716785
C            1.15497255818709        1.02506586988188       -1.70565197113541
C           -0.14789672448933        1.41929221920048       -1.28812217108887
C           -1.58091643319076        2.22954533508606        0.46192813163242
C            3.32293173408806        0.03275750713363       -1.28598434927444
C            3.83797730396257        0.72610976819782       -2.34836692963563
C            1.69260265728285        1.64037794569418       -2.85847616181705
C            3.00360314516995        1.48665635243370       -3.19099938019590
C           -1.09027085723978        1.86295416219199       -2.24385371716386
C           -2.23398751818020        2.48798598975645       -1.85052274239186
C           -2.44196482579417        2.73683398837408       -0.48555687582973
H            1.06226972848252        2.29772932542503       -3.43283130069850
H            3.41735956997025        1.97342874010336       -4.05900416405167
H           -0.90868812873826        1.65606177143019       -3.28497245530471
H           -2.96726678736587        2.80536679770174       -2.57398149929120
H           -3.30349561599991        3.30464022448633       -0.18840996815425
C           -1.78383848582886        2.49772131113855        1.94716216661195
N            1.98068167477656        0.12823307568880       -1.03542564290505
N           -0.51498272547827        1.51121560480699        0.03843819857071
C            4.20420123329719       -0.82654136155614       -0.39213240877070
H            4.88816901171762        0.68775608276598       -2.56702089067225
C            5.69190185543994       -0.60831107336111       -0.70526616254123
C            3.99123670200769       -0.42681730670918        1.07384807127296
C            3.90811442449856       -2.31810061329947       -0.60954909623788
H            6.28199313679385       -1.17549455653525        0.01027621540980
H            5.94902216070330       -0.96615963155801       -1.69901692772992
H            5.97062412915425        0.43867604599178       -0.61167064861899
H            4.65055117235716       -1.01294484899687        1.70836228629997
H            4.22291380586923        0.62742188524598        1.21479829378197
H            2.97754937576931       -0.60376546981835        1.40664203103852
C           -0.46682487298852        2.95865910034601        2.59019893801184
C           -2.80975166926690        3.62028465425122        2.16567552025541
C           -2.31178124587585        1.24160764255327        2.65021221858166
H           -0.05582987247019        3.80674793921086        2.04479724637207
H           -0.65642356587799        3.26697045394420        3.61496339537108
H            0.26704240287465        2.16094067177135        2.61014680228329
H           -1.62211099835633        0.41201698684228        2.56389138841179
H           -2.45653019125930        1.45055343302796        3.70695094472543
H           -3.26794205296144        0.94553007917593        2.22399590759535
H            4.61580169534135       -2.91139046116040       -0.03628322134273
H            2.90782964281170       -2.58510965427682       -0.29058601234063
H            4.01638724798079       -2.57144851750970       -1.66241878847844
H           -2.52572915945592        4.52585325907221        1.63421152210420
H           -3.80952749341093        3.32091570987353        1.86081919578688
H           -2.85052323910558        3.85159341774360        3.22719023679403
