69
 energy: -105.589575489797 gnorm: 0.000599239795 xtb: 6.5.1 (b24c23e)
Si           0.11890872634309       -0.74861510481957       -0.40550134081363
O           -1.63935419917928       -1.05158474228153       -0.40031288199985
C           -2.40649053815694       -1.38700042325310        0.56159803654671
C           -3.80895560871484       -1.48762691416114        0.42203939332574
H           -1.95871245085019       -1.60539419363184        1.52983214250308
C           -4.44027476738539       -1.29035590436429       -0.82500782386841
C           -4.61079914438498       -1.79081271465719        1.54235899427563
C           -5.80790563394795       -1.38176084927637       -0.93365058120688
H           -3.82468097650157       -1.07804255459618       -1.68481399132179
C           -5.97748849065777       -1.87776046592850        1.41696479708581
H           -4.13424589349667       -1.94830901309449        2.49878137021508
C           -6.58505640536047       -1.67153962196414        0.18268167137329
H           -6.28296349149822       -1.23035841908957       -1.89186224498171
H           -6.58501140008824       -2.10803491608628        2.28031212260435
H           -7.65856939791733       -1.74173914273659        0.09166671716340
C           -0.01960953105202       -4.03312913152567        1.81629200389398
C            0.26045797564891       -2.78642309904731        1.59935051107628
H           -0.97236134180983       -4.34533584868243        2.21313958309774
H            0.69232106851212       -4.81238138116992        1.59972915475283
C            0.52855645619432       -1.55741552935086        1.30135143702685
H            0.98352425154295       -0.92352184596798        2.05238789164847
Cl          -0.22579028487389        0.48043575445112       -2.17393336970289
Cl           0.43394460796652       -2.50957453461060       -1.58167556497083
O           -0.15110986354900        0.82901480946027        0.66694846440445
O            1.93775712744516       -0.25143844610421       -0.68520495915615
C            1.42400957139767        2.36072887455388        0.08548443981878
C            2.47537745383222        1.52076526464018        0.66799736135547
C            3.87925732692283       -0.39798508754497        0.58933544662080
C           -0.87458726097206        2.93133523664778       -0.08604478013962
C           -0.50221502874425        4.10351340420273       -0.71559069536792
C            1.80014935487589        3.56580731085842       -0.48845315273573
C            0.83118461141915        4.42195371394036       -0.95874315148295
C            3.28123503533134        2.09846024758268        1.64213313693654
C            4.33420471649405        1.38814826954331        2.16850495018020
C            4.63782259286439        0.14826860611713        1.60718756609156
H            2.85048314182447        3.78566345272778       -0.59525440004962
H            1.09215673894088        5.32913480589753       -1.47786249290246
H            3.03800708703200        3.08917019315541        1.99237119100475
H            4.93354276202512        1.78813737365329        2.96959862008928
H            5.49884308754201       -0.38195573405165        1.97011357200974
C            4.31957654191286       -1.66026328754490       -0.13446566395200
N            0.10431211236874        2.04083059118850        0.21715560811986
N            2.75128237521727        0.26250399812969        0.20960907478149
C           -2.33343447113290        2.68363382336433        0.26954929005498
H           -1.26121367945085        4.79738982639580       -1.02733689933442
C           -3.08162433518861        4.02050926898904        0.41617212056267
C           -2.99532605391144        1.88599007788412       -0.85996780605134
C           -2.48629309726169        1.94591624080757        1.60680450411793
H           -4.06396386427326        3.82577618274498        0.83917758022468
H           -2.55376486518238        4.69969515065130        1.08246167085133
H           -3.23659534379519        4.50719212205989       -0.54253533786483
H           -4.04165950443989        1.70963518725023       -0.62141452963814
H           -2.92996719935150        2.43355482017684       -1.79693957317375
H           -2.50100790723404        0.93355163363134       -0.99944884930696
C            3.41855910651387       -2.84291924158125        0.23972734991994
C            4.28596805590720       -1.43145847357408       -1.65330317654555
C            5.76263856691200       -2.03012607883819        0.24117335322754
H            2.43076067420973       -2.73556971149120       -0.19201288411806
H            3.85394967883076       -3.76001321866900       -0.14792565331137
H            3.32673730502490       -2.93102124999592        1.32031005944470
H            5.83880012983966       -2.35275820266269        1.27687088877885
H            6.07799670925096       -2.86234376146265       -0.38286478125556
H            6.44716959448065       -1.20292743077614        0.06522301669530
H           -3.54220289198334        1.87431505426647        1.85747524665396
H           -2.08651795460684        0.93983734885641        1.56000465628515
H           -1.97825073377545        2.48938774099353        2.40215939049311
H            3.27333309183986       -1.27218250977658       -2.00695046166997
H            4.89940495236478       -0.57347995554812       -1.92443833460611
H            4.67905702190159       -2.31161564490531       -2.15410100378165
