69
 energy: -105.680051778075 gnorm: 0.000341149351 xtb: 6.5.1 (b24c23e)
Si           0.20814288413307       -0.11247095777736        0.78916311298360
O            1.38601204903752       -0.65959008525890       -0.18835017235112
C            1.81118128109037       -1.95757361462375       -0.52386842873671
C            3.23810055410494       -2.17045447843114       -0.08676681319112
H            1.16643582659683       -2.69582934183004       -0.03466358961658
C            4.18215441727094       -1.17504312830034       -0.30277680309746
C            3.62654624896325       -3.35764917428974        0.51664104962527
C            5.49719830727427       -1.36376007336178        0.08025118529887
H            3.87349271792509       -0.24739821504785       -0.76042106832771
C            4.94497571506398       -3.54911265589487        0.89182499402358
H            2.89207136506046       -4.12770222526972        0.70131010093046
C            5.88235734228247       -2.55398097633142        0.67389252401061
H            6.22388853655592       -0.58165427016503       -0.08575199523750
H            5.23993834426959       -4.47562941685343        1.36213095505841
H            6.91013189259969       -2.70327663021651        0.97100304943761
C            1.70323043193782       -2.10526522293600       -2.05893745929510
C            0.42354185013019       -1.63497489937900       -2.54222958280009
H            1.84987324182852       -3.15400198078112       -2.32746364137354
H            2.49098999764319       -1.50679168989138       -2.52441525873760
C           -0.62594561893741       -1.19354330580329       -2.91133958135085
H           -1.54791657340181       -0.82417024370702       -3.24994303729432
Cl           0.56752862396240        1.24562839577337        2.33344698795566
Cl           0.27057517536605       -1.80434952830492        2.15419284968307
O            0.08596476355316        1.17712927734148       -0.43755447402213
O           -1.45025493328819       -0.46100253554962        0.73575507979330
C           -1.79537237498517        2.39628804160080        0.10182004650215
C           -2.67164738137399        1.32812338495629       -0.27648023750626
C           -3.42170703213851       -0.96817054210087       -0.38646090099416
C            0.34513672063773        3.47451329982098       -0.08616572851256
C           -0.20729424455870        4.63794325434046        0.39690232271745
C           -2.34752996450311        3.59694827650841        0.59068364502739
C           -1.55459353538909        4.68803172673286        0.79163641178524
C           -3.86087011239291        1.71533324581740       -0.92904086061402
C           -4.75353270146269        0.79415417356269       -1.38362065159101
C           -4.52258834594375       -0.56650331226066       -1.09768809247981
H           -3.39037968376344        3.60926097468202        0.86276659090409
H           -1.95307086175391        5.59010910553353        1.22685223315348
H           -4.00429515151485        2.76469438061621       -1.12875251244131
H           -5.62695050902308        1.08793043317975       -1.94206136104607
H           -5.24937614600231       -1.28426686933194       -1.42604361247011
C           -3.28936063509313       -2.40695155810399        0.09758338749787
N           -0.44208967302857        2.37411067875362       -0.13807607421039
N           -2.48542527716336       -0.02904304222823       -0.04643809873789
C            1.75387606761291        3.42064585667486       -0.65912715694166
H            0.38948928405961        5.52552070878512        0.48831090067572
C            2.37663406028085        4.82205885750675       -0.71389001197411
C            2.68693829084379        2.53314715344299        0.17287113177716
C            1.67150247294015        2.88733841772314       -2.09950321337463
H            3.34697972196742        4.75479509620498       -1.20010298579299
H            1.76226607110296        5.51055990234318       -1.28960183264279
H            2.53463747125152        5.22238780911927        0.28422070240491
H            3.70698668298706        2.64868143215022       -0.18732659694746
H            2.65274616272077        2.81998887582877        1.22050227332916
H            2.41108581214551        1.48934002976377        0.09128183196716
C           -2.00706897072027       -3.07567510797031       -0.40970333973807
C           -3.32630746761793       -2.40823816990986        1.63543755630824
C           -4.46480053566025       -3.26963331319107       -0.38559809668041
H           -1.12498025994744       -2.60971477071573        0.00730887108384
H           -2.00561867536781       -4.11916034592332       -0.10525303012514
H           -1.94944649446049       -3.02720880579530       -1.49463666256834
H           -4.49899860997759       -3.32826584464290       -1.47107325421850
H           -4.32910326256284       -4.27919986826673       -0.00564149331897
H           -5.41577697143540       -2.90151218400413       -0.00807772184400
H            2.66170187897186        2.90741563450552       -2.54793240831207
H            1.30796820766483        1.86474311219871       -2.11706594950361
H            1.00911628025259        3.50987407283554       -2.69898711229145
H           -2.43501078391843       -1.95702433744406        2.05578110155265
H           -4.20266047650655       -1.87108300119313        1.99419443896692
H           -3.37917948819280       -3.43355588524105        1.99133556781895
