69
 energy: -105.680676475374 gnorm: 0.000687161289 xtb: 6.5.1 (b24c23e)
Si           0.21066461602861       -0.62857454166998       -0.31314193654217
O            1.32004715839080        0.18615703231453        0.56932601879171
C            2.30995268008781       -0.21124266919532        1.49747353285222
C            3.22882139624043       -1.26555522890584        0.91532267413308
H            2.90081848473617        0.70755859669597        1.65607839226006
C            3.67126780710825       -1.09321563380107       -0.39144975869009
C            3.65621702258854       -2.38292023198802        1.61908824815586
C            4.50111744721796       -2.02058095101011       -0.99126896354780
H            3.34303622304356       -0.23209453501061       -0.95345851373305
C            4.49579398239521       -3.30724237459378        1.02183201180683
H            3.32773726201945       -2.55998440533888        2.63025796618268
C            4.91855351661362       -3.13366675980121       -0.28346387046389
H            4.81617348243301       -1.87327106278011       -2.01346096082988
H            4.81132122516274       -4.17568679911860        1.58132367747961
H            5.56446251289117       -3.86373456442441       -0.74832675472648
C            1.67540026082948       -0.59797591854123        2.84132204712365
C            0.83640294470741        0.46669782746656        3.34385889875390
H            2.46873437091461       -0.78927040151747        3.56757235267727
H            1.07482313701226       -1.49975822938687        2.70613777072143
C            0.15396635378734        1.35901767954908        3.75594699440960
H           -0.44701548637658        2.12593075815747        4.14221120097303
Cl           0.63445971743395       -1.25908487089141       -2.23255107333897
Cl           0.53541812554678       -2.60847755943812        0.52529099679431
O           -1.34219852566918       -0.82767442816506        0.34750804351168
O           -0.27788830679551        0.93014165391239       -1.08077936704987
C           -2.52166475473631        1.23235327171887        0.46986918600262
C           -1.37956010277373        2.07900924358971        0.58861623886199
C            0.64217710137199        2.96708842331320       -0.34429066615619
C           -3.63700583431865       -0.83870343007614       -0.08879944791785
C           -4.84742551798112       -0.20917462059845        0.04375916698551
C           -3.78381527617541        1.82393791792737        0.68823952688545
C           -4.93398278722977        1.12947213260253        0.47362156212885
C           -1.37221452528409        3.09616017812633        1.56373665428610
C           -0.34569672974584        3.99094548574328        1.62038291925947
C            0.64451013353743        3.94313288254795        0.63097988970658
H           -3.81680098409395        2.86770433289224        0.95328857274528
H           -5.89864700611334        1.59266134557964        0.60060711002457
H           -2.15999785680874        3.10576664434316        2.29858596999431
H           -0.29501217880702        4.73638179517916        2.39769964943203
H            1.42161290835424        4.68608074114928        0.64037911648510
C            1.68747365455820        3.07913043693683       -1.45041298333255
N           -2.49907350734710       -0.11988737398864        0.15185032134397
N           -0.31835389450732        2.02038464898404       -0.29222436980456
C           -3.55800056105120       -2.31382705402461       -0.45554547831819
H           -5.75922793116035       -0.73469832892208       -0.16474530036892
C           -4.93749521170460       -2.86196317924494       -0.85063402100861
C           -2.62018972823107       -2.53077174707410       -1.65233604011502
C           -3.07800391242821       -3.11709238266758        0.76353561239794
H           -4.82535043775930       -3.90490232511939       -1.13649363190329
H           -5.63877931441913       -2.82705443085771       -0.02039586471945
H           -5.34969449759303       -2.32401450852529       -1.70124165379447
H           -2.84803865660699       -3.48025689432568       -2.12870830115595
H           -2.73954819784425       -1.74169063224105       -2.39166994019098
H           -1.58434129234680       -2.56759670879432       -1.34517907620286
C            3.08053056345093        2.92254353288326       -0.82331902292406
C            1.56696466433681        2.08731812281589       -2.60781409364238
C            1.54729894301407        4.48532641198783       -2.06738671264106
H            3.15732906159181        1.95831476977528       -0.32943427600167
H            3.83983139823969        2.97459869621653       -1.59987557162442
H            3.28483586440891        3.69957233438052       -0.09140409220644
H            1.72111289019057        5.27828509454173       -1.34671427657875
H            2.27265395726387        4.59852817976487       -2.86910969745428
H            0.55208015914266        4.61490515446065       -2.48707130093349
H           -3.07968732374741       -4.17547941653685        0.51741657166964
H           -2.06948615797697       -2.84160421125647        1.05027462778679
H           -3.74370862614427       -2.95401403314554        1.60920006522073
H            1.78984511024092        1.07355169539615       -2.30012477513416
H            0.57214635305455        2.09924720437141       -3.04328755229065
H            2.28051763383124        2.36613421764758       -3.38126024250319
