49
 energy: -88.784338880034 gnorm: 0.000990861952 xtb: 6.5.1 (b24c23e)
Si           0.00775142139427       -0.36167226908257        0.28462380106584
O            1.58378058317381       -0.20421320874154       -0.14660139234581
C            2.56448728718019       -1.13550565707604       -0.50683679066859
C            3.83439217275216       -0.39110936652989       -0.83659109435981
H            2.21834390175333       -1.69685170404087       -1.38769851860211
C            4.23727499223399        0.66399630591017       -0.02920073723080
C            4.62740262338521       -0.76755654333643       -1.91098538611374
C            5.41555014042583        1.33681530747281       -0.29519705895566
H            3.60335538505389        0.94979095960522        0.79566384886156
C            5.80927303223161       -0.09659701039394       -2.17414730255747
H            4.31680378062829       -1.58722012242262       -2.54344913400089
C            6.20557766632412        0.95603785186903       -1.36726085949198
H            5.72452259872284        2.15866790200197        0.33498708074779
H            6.42064903679565       -0.39428113262522       -3.01388664883774
H            7.12717803595638        1.48009851803226       -1.57514396333525
C            2.85751454316567       -2.13845877415153        0.63385447340462
C            1.85347651326173       -3.17538066185468        0.69806601883629
H            3.83695055471125       -2.59274941251636        0.45927930667411
H            2.87906765254107       -1.58905463752334        1.57756243700545
C            1.00808449043655       -4.02213308119655        0.69673263936509
H            0.27761450410721       -4.77359490838495        0.69528743740247
Cl           0.33477032584683       -0.52801931104254        2.31700672440990
Cl          -0.50232235796218       -1.72872553878730       -1.23259506605158
O           -0.28453701158592        1.19414883979934       -0.32858434733680
O           -1.78384686819128       -0.39930152347741        0.87801032985041
C           -2.53566901550737        1.99734493276074       -0.24571036757982
C           -3.14532834273254        0.76881662104934       -0.62006586246353
C           -3.38630331666745       -1.58144739711887       -0.28285631855982
C           -0.71619763725652        3.17311250730351        0.79055390882176
C           -1.48682552903828        4.29751623837934        0.94688520341977
C           -3.28697247302133        3.18728014605212       -0.17753286558337
C           -2.78521661514109        4.32132093305945        0.40012922936868
C           -4.20404256270367        0.70730218792611       -1.55142847318813
C           -4.82111110284509       -0.47676147297831       -1.84892060049147
C           -4.41899314522277       -1.64845007081192       -1.19379952510728
H           -4.30615808534335        3.16258830164139       -0.52758438966201
H           -3.38395105452663        5.21403166467422        0.47432259817685
H           -4.48333670100263        1.61331746616553       -2.06354223689823
H           -5.60949693955696       -0.51448352360235       -2.58343214486119
H           -4.89099966495248       -2.59611650930407       -1.38840182290330
C           -2.96295713064551       -2.70496375268446        0.45905023368002
N           -1.20658469471272        2.07988819961066        0.14283968164038
N           -2.77422059976226       -0.40756296459301       -0.01739865591298
C            0.61256301418285        3.11030458147309        1.25714312138512
H           -1.08441354139588        5.14669516955934        1.47262203153916
C            1.74345720245568        3.07508083699423        1.65957753891714
H            2.72674637185439        3.04091558645141        2.02396570589982
C           -2.62543100056937       -3.63582462410444        1.13779217894967
H           -2.32165844022648       -4.45318487941485        1.72114303368034
