49
 energy: -88.787368294222 gnorm: 0.000485222271 xtb: 6.5.1 (b24c23e)
Si          -0.05027219978135       -0.52844485491358        0.00764798587611
O            1.25555701452917       -1.47638301631211        0.06630725418746
C            2.44080891363805       -1.42915187612737        0.81987195513236
C            3.44923287220749       -0.51489916187511        0.17230518446459
H            2.22084870704203       -1.07396878078664        1.83298392415935
C            3.44932734126795       -0.33180964296662       -1.20349643983895
C            4.40725573734134        0.12702757000145        0.94636825564793
C            4.39683919306983        0.48164038391786       -1.79963302944722
H            2.69629631795938       -0.82220578349830       -1.80066619968586
C            5.35822747200107        0.93588578115500        0.34923365229785
H            4.40233827228881       -0.00384830870410        2.01885008170775
C            5.35624750258935        1.11359763248761       -1.02566528363183
H            4.38708633980466        0.62100696865233       -2.87069962867691
H            6.10011828328312        1.43274887038025        0.95820957965964
H            6.09869326348100        1.74638457890358       -1.49128577474030
C            2.99490870589440       -2.86532814071883        0.89072949183467
C            2.16382683830922       -3.69623892588060        1.73398089971194
H            4.01265418203346       -2.83758371894878        1.28873674502678
H            3.01702547688682       -3.27463655369751       -0.12207599274380
C            1.45916254244928       -4.34736862712863        2.44863757276202
H            0.85631181334400       -4.93423029591560        3.07476697096864
Cl           0.45286707784205        0.61999855256912        1.80816324657366
Cl          -0.62077156495105       -1.69564598377752       -1.71923603314966
O           -0.25828363495366        0.87426712381175       -0.95498522715405
O           -1.61383233377947       -0.61814693311717        0.71362488403016
C           -2.33039481553426        1.86851488482992       -0.38648302988340
C           -3.07995933468710        0.67047325030387       -0.59997927800082
C           -3.36578945686957       -1.70084983570686       -0.35982889664611
C           -0.25156895916955        3.04475960279654       -0.13177886074967
C           -0.90488522642232        4.20836557856827        0.19800197436729
C           -2.99528498523931        3.07949601972766       -0.11095674986696
C           -2.31023726940467        4.22818416676534        0.18275151375409
C           -4.30161230641143        0.70250481489416       -1.29993530739232
C           -5.01896076988222       -0.43795026401233       -1.54514492182017
C           -4.53772911300591       -1.67220750705642       -1.07793241509611
H           -4.07234199098516        3.06369118300707       -0.06661794071202
H           -2.83845790292554        5.13496779693571        0.42811531844016
H           -4.62884498311236        1.64749309015271       -1.70246776776022
H           -5.93309086641604       -0.39819357767505       -2.11475009041285
H           -5.05892253650964       -2.59275258368680       -1.27714251103067
C           -2.82573497239187       -2.89114991647406        0.16809246079425
N           -0.95233945536006        1.93185132341827       -0.46011707585231
N           -2.69770525341532       -0.55331420519889       -0.09565941954737
C            1.15459468303451        2.96011276754683       -0.18710846262133
H           -0.33079293010379        5.08056031939106        0.46022830515050
C            2.35148028190011        2.88307293997670       -0.24692760822689
H            3.39709083580545        2.79878237456086       -0.28072414771849
C           -2.35069011454067       -3.88813148063858        0.63942560017102
H           -1.92612269216964       -4.76708859991271        1.02379523567746
