49
 energy: -88.790694857805 gnorm: 0.000827276658 xtb: 6.5.1 (b24c23e)
Si           0.26974723454096       -0.03330092259321        0.53466051839804
O            1.02618713540633       -0.72413019514106       -0.71808461186157
C            2.14773987089206       -1.57377446961251       -0.70118725587833
C            3.38877175164167       -0.82663011022429       -0.28415420901070
H            1.96499071541040       -2.39165849492532        0.00663012069294
C            3.56616965836230        0.49389726631893       -0.67294154878513
C            4.35980730896026       -1.44818464484608        0.48789644953236
C            4.70031957655188        1.18561420939053       -0.28816183811919
H            2.79511915497215        0.97646940505641       -1.25523367640969
C            5.49700289111022       -0.75672133524953        0.86529291721234
H            4.21454633736613       -2.47010909213497        0.80567208394877
C            5.66928736674706        0.56124367254384        0.47816849437242
H            4.83225318106286        2.21674194352198       -0.58203750987560
H            6.24572978372454       -1.24454767908705        1.47186694784645
H            6.55347137826490        1.10327293095434        0.78012389858517
C            2.31871138413834       -2.14557819773684       -2.12022773895893
C            1.22514697855175       -3.02899922096984       -2.45898914937614
H            3.26474515761696       -2.69098700918991       -2.17069377731226
H            2.34779864130115       -1.31310208987865       -2.82698822608228
C            0.30684132512976       -3.75862739891952       -2.69605220056554
H           -0.49510926568430       -4.39292102078053       -2.92903147453093
Cl           0.93559091963605        1.63476228538025        1.58659458715547
Cl           0.92363512630731       -1.38272455305184        2.07694091302931
O           -0.45645775929449        1.03832154365901       -0.76980909748552
O           -1.30865861260791       -0.51107577536108        0.96586536321930
C           -2.56082205785046        1.84128967325934       -0.11349105344600
C           -3.10812055005806        0.53441008548566       -0.19901915768868
C           -2.75492486817207       -1.84008984481160       -0.25743139021921
C           -0.70356629826878        3.30860192735832       -0.41782933603525
C           -1.46934816989384        4.40825968440060       -0.09308249318202
C           -3.35240938463623        2.96607492630872        0.20461440572760
C           -2.81999311680706        4.22479882219064        0.23653513760115
C           -4.42234210420286        0.30937672007217       -0.65867525414982
C           -4.86941509720402       -0.94925560859830       -0.95302835262047
C           -3.99841938061890       -2.04661962883485       -0.80113978946397
H           -4.38252976937358        2.80011015995887        0.47333493373825
H           -3.42711641471561        5.07191039961743        0.51168518981536
H           -5.04916103406072        1.16642851905506       -0.84367236690591
H           -5.86595830541701       -1.10430516306880       -1.33274136526595
H           -4.29474196154852       -3.04121132765043       -1.08795184293333
C           -1.84275835317500       -2.88551897417541       -0.00921074549394
N           -1.23646750555018        2.06722072943186       -0.41467157194750
N           -2.36206192010190       -0.58951959511495        0.10310817024679
C            0.63861385609218        3.44844496652513       -0.83223463964835
H           -1.01714047344512        5.38501760165987       -0.09952293733381
C            1.75787352441341        3.60744387822204       -1.23643166952478
H            2.74601801077624        3.73512099279940       -1.56496557803914
C           -1.03461926134248       -3.74489900044185        0.21606814636021
H           -0.33982560494725       -4.50465999077753        0.41589858066107
