49
 energy: -88.792680828535 gnorm: 0.000804296942 xtb: 6.5.1 (b24c23e)
Si          -0.56188121410668        0.89608237576944        1.09888691453811
O            0.19820827281605        2.02090120172690        0.20992542171503
C            0.44516410825606        2.06852666757718       -1.18082507357806
C            1.51937271784804        1.07181370143942       -1.53268516075636
H           -0.47745891510437        1.82007615677693       -1.71591623403847
C            2.72384255294026        1.08983448415583       -0.84126381116256
C            1.30675249277146        0.09639126382794       -2.49685382618248
C            3.70084334067722        0.14817559728298       -1.11062798553879
H            2.88213417913293        1.83198650742198       -0.07397503666379
C            2.28034138898480       -0.85148890745231       -2.75976898528186
H            0.36897654722244        0.07539492113341       -3.03322751358800
C            3.47967508267895       -0.82718862767718       -2.06804118168647
H            4.63359112916845        0.17353862075881       -0.56642825984902
H            2.10199492790909       -1.61315343543314       -3.50523718231919
H            4.23855529335949       -1.56774161302751       -2.27434131077118
C            0.86774980413173        3.50433317332929       -1.53460133339094
C           -0.26821174901639        4.39939067797727       -1.48960708362696
H            1.30412723864435        3.51148520671065       -2.53750305434850
H            1.61768155336508        3.83735133289878       -0.81439303242938
C           -1.23024235858698        5.10947003490750       -1.45567405413005
H           -2.05826649600350        5.75159738706949       -1.41303505149603
Cl          -0.02108702596041        1.90303779248943        2.85588018035961
Cl          -2.59294910348514        0.84713185733866        1.51374778454066
O           -0.85202233769030       -0.07295345805623       -0.48726442362684
O            0.15435306241081       -0.52441108564556        1.73258892177923
C           -1.09071234220830       -2.36453471616690       -0.11354676416109
C            0.26223077565600       -2.45246952879221        0.31260782272285
C            2.21804993987169       -1.45928168002644        1.29367388958898
C           -2.88817077928728       -1.04176962766134       -0.96868323073477
C           -3.71100383741068       -2.14392369203682       -1.05733606247654
C           -1.92046984805376       -3.50082019317636       -0.22874296331465
C           -3.21112573290540       -3.39626919123869       -0.66904175850965
C            1.05719605461732       -3.56573833893800       -0.02758195829716
C            2.39762405567344       -3.60284295952778        0.23826059424614
C            3.00201807421288       -2.50914234322341        0.88880909981915
H           -1.52641651060391       -4.45079326502214        0.09320641429559
H           -3.84564283862195       -4.26643065059170       -0.71863365577337
H            0.58808632460381       -4.37027130420502       -0.57048877534379
H            2.99567487670399       -4.44750226321718       -0.06183699448324
H            4.05956213457829       -2.48929631428561        1.08890776282180
C            2.72171626119694       -0.36767341005414        2.03098458953890
N           -1.62680268543795       -1.15941816766083       -0.50015928925745
N            0.88040118461580       -1.45217187141071        1.04326915910873
C           -3.28193197187317        0.23663438580309       -1.42106323105754
H           -4.71554384733443       -2.02511130648051       -1.42528594595188
C           -3.56027137535505        1.32107190658265       -1.85445684175856
H           -3.82149015138384        2.27538622872315       -2.20361172047428
C            3.09067445391709        0.56735815811991        2.68831477536111
H            3.40181029246622        1.38970631118665        3.26114445562251
