49
 energy: -88.786212066269 gnorm: 0.000505479643 xtb: 6.5.1 (b24c23e)
Si           0.20467030992990        0.13781659263588        0.30134211403253
O            1.39930366517268       -0.65996997276570        1.05813219903334
C            2.30350381308289       -1.63622745714421        0.60739841469315
C            3.44237065954973       -0.99526441697806       -0.14572791700609
H            1.78172137380585       -2.34498106497042       -0.04700506593758
C            3.87275584734848        0.27896920071813        0.19703172462918
C            4.07780873626414       -1.67604478325538       -1.17491180802421
C            4.92456583236689        0.86576921028792       -0.48332304156247
H            3.36764384104800        0.81016632400224        0.99011200841409
C            5.13160876650745       -1.08901462001486       -1.85194042070611
H            3.73590459844792       -2.66267443952790       -1.45249024442851
C            5.55774839275994        0.18259976294142       -1.50724460624017
H            5.25389319179700        1.85809265555657       -0.21056379050450
H            5.61780451073896       -1.62283497674700       -2.65547269246826
H            6.37857419811633        0.64134608001450       -2.03923911844613
C            2.83958292006002       -2.38330965188124        1.84357751359031
C            1.80358834670349       -3.18670822978737        2.45425191313398
H            3.67402036490287       -3.02093347985556        1.53876666775757
H            3.19857244794444       -1.64472694883693        2.56419695923513
C            0.92452096324545       -3.84428785214735        2.93053791850511
H            0.16306318716544       -4.41456739796759        3.37274294910956
Cl           0.21385798848650        1.45653037557777        1.98911700142391
Cl           0.46531036787768       -0.86824982173568       -1.60173658273296
O           -0.35392297630127        1.41934488204554       -0.75581338684693
O           -1.33592365606216       -0.46700827395418        0.71364275025264
C           -2.59867114578730        1.89410615670243       -0.26884220728941
C           -3.00426294504682        0.56854050962982       -0.61310751499690
C           -2.59781553511814       -1.79907244650264       -0.70111278002040
C           -0.87941329924763        3.53752283951498        0.04042841479087
C           -1.80216476028423        4.49015299128089        0.40558081120919
C           -3.54571555278780        2.88100006766046        0.06695468514123
C           -3.16492011379629        4.15054735509644        0.41091979408634
C           -4.17318342056212        0.34906797596887       -1.36761934518514
C           -4.52033564647702       -0.89932733300159       -1.81064284282973
C           -3.69913944791612       -1.99790067454004       -1.49799919899229
H           -4.58370732782394        2.59291449554337        0.10850241227150
H           -3.90015421415889        4.88336097431732        0.70125456424499
H           -4.75748506188788        1.20880339483283       -1.65354908852769
H           -5.39817364758029       -1.04101455203037       -2.41963204461298
H           -3.91722325867061       -2.98648427286681       -1.86427749180155
C           -1.75248875410375       -2.84801521724745       -0.28433439025552
N           -1.28145522602045        2.29505030910672       -0.31147990158527
N           -2.30369199037601       -0.56012448307809       -0.23380321823834
C            0.50090820534638        3.81357215893173       -0.04677441183696
H           -1.46508012337589        5.47421417664473        0.68249736101265
C            1.67311541040839        4.04319283140627       -0.16807503279036
H            2.70011646158750        4.24202359858984       -0.24843161440395
C           -1.01704161313982       -3.71357155777795        0.10567342307613
H           -0.36488168413089       -4.46580999438646        0.43779415862450
