49
 energy: -88.790108404178 gnorm: 0.000844346760 xtb: 6.5.1 (b24c23e)
Si           0.16149327737694       -1.40312438486731        0.31365975681440
O           -1.38252287207741       -0.91424590658485        0.38972817190169
C           -2.48922380419995       -0.59434163555997       -0.42502531489486
C           -2.16295442599481        0.62930693415846       -1.24883123495602
H           -3.27875921192462       -0.33938322883062        0.29899960250113
C           -1.17502035190912        0.58587473017702       -2.22540530190588
C           -2.80018133626057        1.83497305857478       -0.98486393241969
C           -0.81651226059955        1.73674549743992       -2.90476337665160
H           -0.67239584727941       -0.34377687556614       -2.44118804184572
C           -2.45074805527903        2.98210008983096       -1.67557573970004
H           -3.57536882066400        1.87419659436465       -0.23213798060860
C           -1.45003234359515        2.93726287085402       -2.63049910555612
H           -0.03983223471066        1.69380191533833       -3.65409374880399
H           -2.95727580120194        3.91239795648693       -1.46317895660943
H           -1.16866079841173        3.83414812248921       -3.16294350263937
C           -2.98951231825350       -1.76546322377761       -1.28389454292506
C           -3.41184410895054       -2.86175408976742       -0.43945118901577
H           -3.83073491825601       -1.41093074988297       -1.88624145940445
H           -2.19401523536202       -2.11523183983059       -1.94248546019655
C           -3.74586224911978       -3.74012104013531        0.30055437346619
H           -4.03514816963772       -4.53525061389977        0.91991485365591
Cl           0.76337301711299       -2.79462355338685        1.67377823420319
Cl           0.09581913463166       -2.75522757784417       -1.34030619315211
O            1.21209632034472       -0.48962880698183       -0.68396593175810
O            0.56445618790502       -0.17078044657472        1.67085184057703
C            2.00586961527669        1.60348740528251        0.15114464076806
C            0.77315418081639        1.97138470608496        0.74954532310658
C           -1.09557134993111        1.37594203892059        2.10699680415268
C            3.49532860731465       -0.14701587925407       -0.55313171261501
C            4.56173815759052        0.71578797872429       -0.56038418656182
C            3.08261239995083        2.50702522251686        0.03961795844745
C            4.33485094263073        2.08505409433932       -0.31373209104077
C            0.24979009862754        3.27873281624632        0.65956443591268
C           -0.92391489236819        3.61714216091104        1.27280298925914
C           -1.61609868389428        2.65008409989910        2.01517405073957
H            2.91172554713636        3.53583910107743        0.31185178518746
H            5.15545065096297        2.78166671037350       -0.36662534683744
H            0.77680607720377        3.99508239167426        0.05150917142046
H           -1.32473510735493        4.61344353954165        1.18015812673730
H           -2.54355017505342        2.87755549395219        2.51274402005959
C           -1.73335837427515        0.36083671580161        2.85129833718354
N            2.24164532340659        0.31248704896318       -0.28655249419204
N            0.07138629558846        1.06076460730064        1.50678966055711
C            3.60792031358009       -1.52156257624900       -0.84662839950943
H            5.54927668850061        0.33875266320018       -0.76512415151335
C            3.63165700916236       -2.69935118725131       -1.08105340518583
H            3.66148047452191       -3.72947770000195       -1.27923812449740
C           -2.26858849922339       -0.50775519986466        3.48388233331492
H           -2.73521107385114       -1.27607404842166        4.02482145503217
