49
 energy: -88.796125738687 gnorm: 0.000986940146 xtb: 6.5.1 (b24c23e)
Si           0.20750487010232       -0.68636341995038       -0.65000283990415
O            1.14293660278643        0.34996771011369        0.19078579274508
C            2.18881330321040        0.10183573750739        1.09724204944697
C            3.42819447485292       -0.41710430806832        0.41597816032457
H            1.85084994298273       -0.63394608733108        1.83727625724648
C            3.70527658503032       -0.08051541274419       -0.90028693150148
C            4.31574607107637       -1.22408936754552        1.11502710618667
C            4.85182938722028       -0.55165804209980       -1.51465089101080
H            3.00342395364614        0.53382499393738       -1.44379820070769
C            5.46574978243020       -1.68749008144648        0.50292020240384
H            4.09494881003877       -1.50082156462076        2.13577992597549
C            5.73606164644481       -1.35266372354699       -0.81337833601460
H            5.05202973686316       -0.29714431527955       -2.54512644332967
H            6.14791157115902       -2.32059946015259        1.05140037976258
H            6.63024840765478       -1.72240891211249       -1.29352931772119
C            2.49264069972613        1.43669247290981        1.80628852881763
C            1.33388097081176        1.89294514134484        2.54174272155854
H            3.33402626702427        1.29429174003547        2.48841752022922
H            2.76448141406507        2.17880431169112        1.05071981524736
C            0.34140431015107        2.22616848082344        3.12172459360272
H           -0.50856093690708        2.53844914155323        3.65095472566769
Cl           0.54995634879640       -1.23744022587808       -2.59228005097136
Cl           0.94735898444801       -2.50369006509366        0.20384816453811
O           -1.26387513055550       -1.03419493317316        0.14945118076925
O           -0.61522320694308        0.77977808151431       -1.40333505338415
C           -3.02275411152502        0.56049584856130       -0.09696540576741
C           -2.18232653671474        1.69119151689039        0.07919976542383
C           -0.16867655086969        2.84767739741314       -0.46450122229962
C           -3.26412959696380       -1.72976295622589       -0.78358196236934
C           -4.62202634114451       -1.58336450268147       -0.91685437804684
C           -4.42775006739054        0.67639014184648       -0.13664369056332
C           -5.21971162433888       -0.36708967149023       -0.53021656600107
C           -2.56413557718238        2.79815968511752        0.86792271766269
C           -1.75253060157044        3.89005687435513        1.00056865513164
C           -0.52656203626082        3.92321594413911        0.32030242030347
H           -4.86402416043554        1.63749675652987        0.08219130010528
H           -6.29024613350938       -0.25534931435095       -0.58423266647892
H           -3.49679612831976        2.73978132624326        1.40498133930242
H           -2.04241349806018        4.71927990154829        1.62576996191657
H            0.13826214545410        4.76629842319976        0.39707316611805
C            1.02286715029303        2.85517936972821       -1.22107829597751
N           -2.50598507428821       -0.70594390932612       -0.30487879399691
N           -0.97774882766634        1.77476302042000       -0.58053454467803
C           -2.58091947747829       -2.92390360925719       -1.09140284004119
H           -5.20888127842617       -2.39955297250425       -1.30240804111341
C           -1.94081147718311       -3.90883883796173       -1.34236503805383
H           -1.38603886652080       -4.77212871519461       -1.56148296912292
C            2.02418521055552        2.89634287270465       -1.88274230421833
H            2.89965759343768        2.91557851790762       -2.46178166721577
