47
 energy: -89.382681027992 gnorm: 0.000440902606 xtb: 6.5.1 (b24c23e)
Si           0.19164654504198       -0.84001668237239       -0.14908315664817
O            1.02543624833224        0.49341509719756        0.27761058487202
C            2.18345249701433        0.57602012219595        1.08916436421473
C            3.36345076357864       -0.10608613345088        0.44890573111971
H            1.96319814333864        0.09622414532563        2.05000726440276
C            3.60392859342435        0.04009025640148       -0.91017075722769
C            4.21780167340390       -0.88772588317352        1.21413872181068
C            4.68239280752933       -0.59579274623834       -1.49846794949373
H            2.93766508787592        0.64170856337678       -1.51041562942296
C            5.29990700849724       -1.51621902911650        0.62526467335251
H            4.02409411877700       -1.01543149231768        2.26888075569705
C            5.53306841724921       -1.37324662076852       -0.73208482562248
H            4.85456614690333       -0.48384151058674       -2.55836992172341
H            5.95645999954645       -2.12767700240505        1.22642198280331
H            6.37317809799409       -1.87226496798500       -1.19232544232553
C            2.48198583417194        2.06809164415302        1.32053447533691
C            1.36718136973934        2.71905813650028        1.97200511999415
H            2.68074937951515        2.54570257704981        0.35794793450025
H            3.37412619384922        2.15091711027552        1.94586804401459
C            0.40909276245541        3.21066086017748        2.49464002153437
H           -0.40567508876337        3.66105594191237        2.97791429788834
Cl           0.50991138826510       -1.86512101975759       -1.87160876026667
Cl           1.02094163971488       -2.21907385431211        1.20627998236411
O           -1.28616964645258       -1.01787274907672        0.70693643048034
O           -0.81224029494802        0.36039096718864       -1.29713027654363
C           -3.16735793532358        0.32066677243457        0.07438215842434
C           -2.41314480229508        1.51726036628436       -0.06604117048365
C           -0.48212552040586        2.60636126234622       -0.91332880071958
C           -3.23361695505650       -2.07476794230910        0.02638895237963
C           -4.59801827035191       -2.07351435511973       -0.10714376271644
C           -4.57186540977955        0.31822730599485        0.03268668031256
C           -5.28890650164519       -0.84680517717146       -0.05061442640609
C           -2.86205533548139        2.76493436284588        0.41630067311712
C           -2.12046162606288        3.90214237354107        0.24906195271182
C           -0.89544136900570        3.82945331951481       -0.42955100791213
H           -5.07942071377718        1.26890340104304       -0.00386738224489
H           -6.36401250446681       -0.83138786200249       -0.11239181158673
H           -3.79016273742447        2.79239487084954        0.96398751371282
H           -2.46269027268516        4.84624819873821        0.64056690520857
H           -0.27697877793554        4.69830587965969       -0.57722662395048
N           -2.54215933081715       -0.91169163763349        0.19004042671048
N           -1.22221200861698        1.49267878850672       -0.74997257200303
H           -5.12001313683129       -3.00590570021135       -0.24425574156458
C           -2.50933927766695       -3.29104830367140        0.04203222387549
C            0.72077741839864        2.48862980251769       -1.65117531501827
N            1.68495509257335        2.46199267571774       -2.26740533567872
N           -1.98399671139867       -4.30817013206840        0.05646779872138
