47
 energy: -89.374492304153 gnorm: 0.000755926892 xtb: 6.5.1 (b24c23e)
Si          -0.04093264552987       -0.56410145001827        0.27465299543741
O            1.51102392714444       -0.92818841347999       -0.01326063599425
C            2.67838526138001       -0.86698802266898        0.77196911718175
C            3.81565278044143       -0.33014946701883       -0.05579289535630
H            2.50380785721331       -0.21090331577145        1.63174081238109
C            3.99273635876909       -0.76769794811923       -1.36162495035190
C            4.70475593505103        0.58900735478981        0.48280176450634
C            5.04953612670457       -0.29434381664227       -2.11805721877634
H            3.28654182150860       -1.46739501564668       -1.78273086083717
C            5.76530536301574        1.05638976253975       -0.27301775501465
H            4.55965622982469        0.94325517958976        1.49254601090917
C            5.94099637483614        0.61442413355257       -1.57321836023570
H            5.17913005511554       -0.63666948068636       -3.13462014541834
H            6.45295732563131        1.77253032666592        0.15222767003979
H            6.76806528668270        0.98185428637719       -2.16334863636629
C            3.00049296247564       -2.29100229221116        1.27735668108598
C            1.83354195814198       -2.86996812176254        1.90765687466882
H            3.83429054143260       -2.23905826402420        1.98099234466220
H            3.28947796423906       -2.91245244358038        0.42512472394939
C            0.80729123865588       -3.30054106418679        2.34883659914355
H           -0.07198523474715       -3.70390267878301        2.75489427175687
Cl           0.20726793882293        0.28981280698159        2.19727407868455
Cl          -0.55879631108382       -1.98360944482093       -1.21793691378746
O           -0.33332660034132        0.82600049912405       -0.70007108731771
O           -1.77421729102288       -0.59276095043713        0.85344467705865
C           -2.48534838360897        1.77098320453036       -0.35563331996386
C           -3.16540741731757        0.54582090773840       -0.63523261984494
C           -3.34862085051621       -1.81415760688453       -0.32312963574152
C           -0.47971249594537        2.92638077301243        0.27166275542562
C           -1.17782553269173        4.07718537666904        0.53832013617980
C           -3.18643200198082        2.97137125318241       -0.16501981770298
C           -2.55960800815815        4.11115808967615        0.27259766795368
C           -4.29061753836475        0.48580155041185       -1.47636370529847
C           -4.90805306431763       -0.70514259534567       -1.75752851759072
C           -4.42408273176424       -1.88904314214323       -1.17716579164324
H           -4.25639380492052        2.95816897523266       -0.30015143348352
H           -3.11943503908934        5.01399796416659        0.45041851726563
H           -4.62218577787607        1.39802249978127       -1.94602363625539
H           -5.74877663155708       -0.74205714225235       -2.43060193293833
H           -4.87307952739017       -2.84520529540388       -1.38634152655335
N           -1.10888518107817        1.83311784857281       -0.23435420622046
N           -2.77029323412165       -0.62694746537986       -0.03754706276830
H           -0.66136364686000        4.93252515269078        0.94079838352913
C            0.92399770361236        2.85463559542970        0.44555176031183
C           -2.86467417953230       -2.95376528834090        0.36870756051419
N           -2.56113795802359       -3.88004702988980        0.96840876335166
N            2.06324107714697        2.86128621479030        0.56171749946619
