47
 energy: -89.383235854193 gnorm: 0.000504526506 xtb: 6.5.1 (b24c23e)
Si          -0.30788986897968       -1.08706383104539        1.13516141386435
O            0.71553241427602        0.05521022994313        0.66059694748720
C            2.09809545589306        0.06412350509702        0.29206275343017
C            2.34988807063532       -1.00890256794887       -0.73618674862106
H            2.25089972551898        1.04370476805311       -0.17885459634759
C            2.87367557972239       -2.25325466209491       -0.41314389530334
C            1.95027889853230       -0.75421716043225       -2.04426796661477
C            3.01090084263660       -3.22385287709136       -1.39091792498360
H            3.17490387805687       -2.48001409010908        0.59827944090617
C            2.08267292659662       -1.72893855495351       -3.01596021137193
H            1.52272595285285        0.20726452577580       -2.29202043935727
C            2.61631102341335       -2.96497885258817       -2.69164542324847
H            3.42163564950736       -4.18802378069393       -1.13053942169970
H            1.76736306739450       -1.52230578604911       -4.02750137391046
H            2.72065947159782       -3.72697523413972       -3.44952763601029
C            2.96744015040440       -0.01809750228620        1.54915284275540
C            2.72420285541322        1.12458479659182        2.40518965895397
H            4.01813152854942       -0.03675840012680        1.24993255503022
H            2.73072828119913       -0.92647877406246        2.10785875168699
C            2.48822096800578        2.07292333504710        3.09470905273161
H            2.30964162222370        2.89260996023669        3.72367677757054
Cl          -0.57334635133640       -2.50981640734533       -0.27157561240674
Cl           0.08133197527076       -1.81053722406308        2.94869344443715
O           -1.72964583117872       -0.29322253409997        1.37363125242970
O            0.23850829983357        2.10986118964938       -1.80332385221191
C           -1.98458794301226        1.05429549612775       -0.58236427840819
C           -1.15252601769047        2.07056446439183        0.02423287625261
C            0.75401902793036        3.44363525948119       -0.04571937753389
C           -3.45046737726975       -0.80321169122637       -0.16210375495312
C           -3.75419520847366       -0.88266428094701       -1.50421540228556
C           -2.26157656615377        0.94802485320805       -1.92764687500036
C           -3.14047876799388       -0.02161762296260       -2.40714263902229
C           -1.42028325567497        2.54417184732310        1.30782011576319
C           -0.60973548367503        3.48202141948545        1.91412620602291
C            0.50208807535190        3.93597640155779        1.22575586283964
H           -1.79381101486208        1.63977514677227       -2.60892922629319
H           -3.34674223239027       -0.09526231678795       -3.46103776091011
H           -2.29240677613466        2.16601225995907        1.81645011956864
H           -0.83723274556624        3.84775764159188        2.90138489757590
H            1.18296456304133        4.65907699729568        1.64480465268037
N           -2.56515691903993        0.15737910842793        0.31416685627088
N           -0.05487277809950        2.53341081544294       -0.65479352415077
H           -4.46219523378353       -1.62849955384416       -1.83024471021272
C           -4.00827591998074       -1.68078843512076        0.77826780346636
C            1.90403940319553        3.85100374946649       -0.76156319216811
N            2.85252423226083        4.18993030485134       -1.30704934445211
N           -4.46810864801482       -2.41953493576206        1.52967590573788
