47
 energy: -89.379401777406 gnorm: 0.000273531490 xtb: 6.5.1 (b24c23e)
Si           0.28596494162593       -1.64397648036875       -0.06529295941951
O           -1.08615278257322       -0.88120763334954        0.25672589964351
C           -2.42403956760960       -0.74897067271116       -0.17141500082879
C           -2.56884759825198        0.53854822992896       -0.94812579575780
H           -3.01638382856186       -0.69411588021961        0.75295534098639
C           -1.63176267274775        0.88385843573334       -1.91337021066194
C           -3.63193925113322        1.39605015963972       -0.69588578959289
C           -1.74857909024776        2.07654047076898       -2.60444822199268
H           -0.80451087181714        0.22054414852498       -2.11734623599675
C           -3.75454900167503        2.58265525219032       -1.39711897303407
H           -4.36408741776347        1.13039245994143        0.05333127819476
C           -2.80938734012375        2.92839348881135       -2.34800235534959
H           -1.01168891321197        2.33755771130642       -3.34944499382281
H           -4.58674953778393        3.24112659692565       -1.19679598585187
H           -2.90141004197670        3.85754651419584       -2.89054277413578
C           -2.92454553462960       -1.94498307076121       -0.99644643915186
C           -2.78011667166974       -3.17042540860172       -0.23995615974045
H           -2.35605001492818       -2.01848677437654       -1.92552716199524
H           -3.97740558849051       -1.77462728977483       -1.23615833325337
C           -2.61737268792252       -4.14436823576401        0.43520018237164
H           -2.48990310456709       -5.01778837317151        1.00127069662373
Cl           0.86645101196093       -2.77585223048735        1.45479212173030
Cl           0.18880808322809       -2.70556872695620       -1.78244968027611
O            1.37469260022982       -0.52966671736078       -0.63929298750290
O            0.75812684528787        0.15513878154061        1.88882745759088
C            2.24235309885985        1.53351059899151        0.14131305919608
C            0.93817210626141        1.99632208720071        0.54603534077433
C           -0.99378329023386        1.60478133207853        1.83021615752445
C            3.68977468114977       -0.34773332343473       -0.24042111484364
C            4.77584814757660        0.49244361382632       -0.32939119281412
C            3.32879941952802        2.37521886471222        0.00239542456517
C            4.60156772403273        1.87510045037980       -0.24726415695237
C            0.38628964041408        3.19880865849115        0.10323193943024
C           -0.86153686449800        3.60678208894902        0.52429823482590
C           -1.56753926864522        2.79258233962339        1.39695283145450
H            3.18174057943513        3.43338497503009        0.15162742109271
H            5.44456559817027        2.53848539899527       -0.33646695348767
H            0.94981415833327        3.78968355967078       -0.60062711053832
H           -1.28775285957826        4.53110258548175        0.17215717946928
H           -2.55065000506909        3.05639729813654        1.75049504208675
N            2.42082410235703        0.17014649280756       -0.04728846749533
N            0.24173806991011        1.21490858349920        1.43454238376345
H            5.75547141743949        0.06140053648840       -0.46338794366452
C            3.82548329390356       -1.73891317295919       -0.36724593666771
C           -1.69099768369907        0.75146139339345        2.71622778064733
N           -2.30956593244045        0.09729254487155        3.42401138005196
N            3.96974790213735       -2.87014366183325       -0.50926221718857
