47
 energy: -89.379615997297 gnorm: 0.000573091843 xtb: 6.5.1 (b24c23e)
Si           0.04428685381794       -1.26628227934336       -0.60265009928871
O           -1.39137630393790       -1.88797949762335       -0.21665577548591
C           -2.68964869149279       -1.49734993143955       -0.62510372363326
C           -3.15296011562066       -0.27831844160655        0.13129731355487
H           -2.67024924520327       -1.27370906495472       -1.69909901405692
C           -2.71716330372310       -0.04684089186371        1.42823573091610
C           -4.02560706808803        0.62204024593212       -0.46584326869731
C           -3.12425834779346        1.08651782310471        2.10962393331226
H           -2.04257170729210       -0.75006988214379        1.89248246382708
C           -4.43855699577730        1.75010257204234        0.21993019370528
H           -4.36582596250784        0.44617542838804       -1.47500859350363
C           -3.98300918276784        1.98887225781373        1.50588694206967
H           -2.77126218597483        1.26416883093174        3.11525120285908
H           -5.11139303985290        2.44905381428432       -0.25429491454817
H           -4.29848873537028        2.87516436986253        2.03693570484035
C           -3.63208728962138       -2.68600272257190       -0.36677918525527
C           -3.25704581536625       -3.82087801632309       -1.18319381181447
H           -4.65674259225287       -2.38306818858719       -0.59574688239681
H           -3.56812538622152       -2.95929411752458        0.68956109137950
C           -2.90760760145700       -4.73493336539202       -1.87105824138091
H           -2.61628590419715       -5.54700061156262       -2.46712383524683
Cl           0.33479226935781       -1.29071995379395       -2.57333199106279
Cl           1.15775701767742       -2.44238971871421        0.58148801428336
O           -0.05670601704894        0.24564874787489        0.08631481177449
O            2.38765931729061       -0.13851490194408       -0.86802798704077
C            1.50878143812899        1.97027566115029        0.56097324481716
C            2.49757619901807        1.05821976911893        1.08136867577559
C            3.82673272982285       -0.85686007901702        0.73547225190886
C           -0.31874101854832        2.33353870606037       -0.96002691242768
C           -0.22966939482718        3.69282588638091       -0.76477923706758
C            1.56774677026973        3.33373347425857        0.78026126644810
C            0.69195543878867        4.20825266960448        0.14634350371550
C            3.09303916656553        1.22541311103422        2.33383200976576
C            4.05269012927172        0.34715831613488        2.78910545329955
C            4.42602119097565       -0.71503251733004        1.97743442020071
H            2.35170007968828        3.72119381980168        1.41150816118335
H            0.75622037734008        5.26896557679529        0.31827805111248
H            2.76086232892034        2.04364688270467        2.95213666503850
H            4.49922160420638        0.47653570135612        3.76120437079575
H            5.16692881077025       -1.43446938194009        2.28471833940121
N            0.50508486175470        1.47000487674274       -0.25576142229002
N            2.89028204069636        0.01260274386822        0.28717991209883
H           -0.87678522442130        4.34247343220110       -1.33275854622884
C           -1.23870658152597        1.77896354782478       -1.85968028029760
C            4.20276303861839       -1.90417830566062       -0.14082380917638
N            4.56653652676730       -2.74357687261578       -0.82870691019922
N           -2.02008147886820        1.35238947668145       -2.58763328696811
