65
 energy: -110.135350985440 gnorm: 0.000167762035 xtb: 6.5.1 (b24c23e)
Si           0.27256743462796       -0.22662976110000        0.02369546742422
O           -0.83202343576886       -1.39540780108009        0.24738354450123
C           -1.83794629524620       -1.96396520911154       -0.54492507854492
C           -3.13326017800122       -2.03610467034600        0.22109618360415
H           -1.97971321339554       -1.36471073328723       -1.45247926118311
C           -3.13984984067983       -2.04499706101382        1.60820496870903
C           -4.33513037708689       -2.13985024746784       -0.46726873924206
C           -4.33463263562120       -2.15066663573748        2.29862981316996
H           -2.20295596058976       -1.95836403614753        2.13610412294835
C           -5.52736173289883       -2.25462589530827        0.22401557240943
H           -4.33291674391881       -2.12532427326119       -1.54805358156852
C           -5.53006395735496       -2.25904579949407        1.60909471475537
H           -4.33159300819072       -2.15293071540340        3.37913131786153
H           -6.45806339600217       -2.33905381482806       -0.31873943098352
H           -6.46234969574165       -2.34575052677187        2.14832447893382
C           -1.39370156246355       -3.38897675805039       -0.94277633820134
C           -0.16408557215884       -3.33721432166898       -1.70142726544727
H           -2.18358761985845       -3.86073568238346       -1.53206262695584
H           -1.23150463208990       -3.96805440714011       -0.02948513505106
C            0.86798009031250       -3.22978820191356       -2.29665189861728
H            1.76535988438535       -3.15740806193705       -2.83282391766684
Cl          -0.35414031953137        0.29269596451473       -1.97776828658720
Cl           1.21598257352170       -0.99989694396009        1.78241950768695
O           -0.19863901062071        1.20001534311368        0.83348448657844
O            1.80020333763840        0.38668614559418       -0.57841890407542
C            1.25551561776272        2.97069028482972        0.27725323833779
C            2.41857492179723        2.25218590425073        0.69150532673059
C            3.76131769745117        0.26324719653798        0.67547769087074
C           -1.08036927145356        3.03391991834000       -0.29370924096783
C           -0.95133326529739        4.31799008544292       -0.76229642658896
C            1.35305963964343        4.32025454925828       -0.11257134961448
C            0.28078579568114        4.98751475566525       -0.63641226588083
C            3.39619499550884        2.86925567571795        1.49485723674961
C            4.49805559381832        2.18207872411121        1.92308465271501
C            4.67879684792489        0.84982549944023        1.51371704017563
H            2.32127188522265        4.79159033202607       -0.06070355497436
H            0.37658560244466        6.00691198165980       -0.97288866690728
H            3.21643689289799        3.88052167359076        1.82229239258056
H            5.21906053122469        2.64877153682435        2.57441500642011
H            5.54026597578357        0.28479553606134        1.82602115654258
N           -0.00938366657338        2.41194789541408        0.24792761187643
N            2.67904721310220        0.96206968122152        0.27625585011999
H           -1.80731262578412        4.80879630036362       -1.19288474984180
C           -2.37321495315689        2.33479931586105       -0.32202221176693
C           -2.92500186760745        1.78883328989511        0.83356169724320
C           -3.07376766359671        2.25263545851062       -1.52227534874784
C           -4.16356529444863        1.17716352711831        0.78628936458290
H           -2.38983550334998        1.85157381405375        1.76817638642644
C           -4.30438051545338        1.62554301559760       -1.56409234115101
H           -2.63179074277240        2.65071364297240       -2.42231238857803
C           -4.85488648505351        1.09348127994966       -0.41002383286599
H           -4.58841814116419        0.75810164787418        1.68550893328935
H           -4.83553724474578        1.55228101561082       -2.50133238926304
H           -5.81932520962248        0.60987117817264       -0.44110514343125
C            3.97439528432578       -1.08785627209368        0.13800642829594
C            3.99062205318625       -1.30832634095434       -1.23572232346853
C            4.21726569721447       -2.14586916117961        1.00874132858223
C            4.25615358284220       -2.57318056129972       -1.72782773777759
H            3.80634153348844       -0.48969712004409       -1.91493688025359
C            4.45583427109616       -3.41166581858369        0.50858522861759
H            4.17481022261214       -1.97280280186841        2.07214326821568
C            4.48199662128206       -3.62755628358325       -0.85952216620960
H            4.29334579444373       -2.73402954336853       -2.79585814880247
H            4.62340992207839       -4.23333590559010        1.18852027889700
H            4.67571312398108       -4.61659080361599       -1.24795266463978
