65
 energy: -110.136029773338 gnorm: 0.000577259551 xtb: 6.5.1 (b24c23e)
Si           0.24589313559220       -0.16986889663736       -0.95484161185129
O           -0.29832251726621       -1.42845874798674       -0.09223424770646
C           -1.21009173891034       -1.54482635358565        0.97050134720414
C           -2.37537221467523       -2.41808888360296        0.56910457138090
H           -1.59246200759229       -0.55330012142447        1.23439010694386
C           -2.38684772572748       -3.08797168380001       -0.64525238783654
C           -3.46762995742998       -2.53643897076030        1.42060125172159
C           -3.47932017901865       -3.85843706006879       -1.00527404166185
H           -1.53961385890122       -2.99601093579793       -1.30671267946160
C           -4.55649219580741       -3.30788911742139        1.06048505509760
H           -3.46682099184994       -2.01759443431664        2.36853475709423
C           -4.56623328903315       -3.96931855727421       -0.15635008387177
H           -3.47937131048138       -4.37212446848423       -1.95511289006685
H           -5.40111814199558       -3.39116116890871        1.72939185452829
H           -5.41935745294765       -4.56826083969345       -0.43979591627540
C           -0.46241913445539       -2.12313006605282        2.18998833221715
C            0.47265953373263       -1.15089656838343        2.71308823596709
H            0.07360992681819       -3.02204952762901        1.87373330922518
H           -1.18193393851750       -2.39560584623807        2.96514583582558
C            1.23689958686958       -0.31259743914630        3.09558206728521
H            1.91451603225923        0.40507545420106        3.45099713247808
Cl          -0.91318652547179        0.86055036559573       -2.33839947368205
Cl           1.05561901161077       -1.50643219365178       -2.38468741485841
O           -0.27194999946763        0.98161185637099        0.39566579620187
O            1.81722335659482        0.47665857819073       -0.86445502828364
C            0.83509352545660        3.02224212726415        0.14501775279466
C            2.08161487635583        2.43347051239331        0.49452249443091
C            3.59716117109377        0.56817922502079        0.59526674139990
C           -1.53926011540847        2.85161338946595       -0.08732420726168
C           -1.63523031340416        4.18305786729203       -0.41427637284504
C            0.73216226150697        4.39676341114572       -0.16254519049532
C           -0.47089768840435        4.96609028728954       -0.46861679298043
C            3.02493520877693        3.18474423786627        1.22916059716070
C            4.19029551688964        2.63389817240360        1.67710954226111
C            4.47068359504016        1.28693874447307        1.36973052496561
H            1.64065395363162        4.97373528491911       -0.21694504358508
H           -0.53211981334393        6.00573836600166       -0.74709214897350
H            2.76811681492222        4.19983825378310        1.48485649081088
H            4.88365756449018        3.20902401064635        2.26879088480662
H            5.36813975151326        0.81192427067421        1.72829072218796
N           -0.33445837322314        2.29897029469210        0.15634607028032
N            2.44115030643032        1.13590410254509        0.16175363535776
H           -2.60516994661335        4.60668151573507       -0.61038756310683
C           -2.73861998211231        2.01820039895224        0.10368510588069
C           -2.99913408167133        1.47694189011015        1.35916168093245
C           -3.63786097858277        1.81088197470274       -0.93534182849231
C           -4.14727236434459        0.73407665559111        1.56756245432744
H           -2.31118848198627        1.65606690615685        2.17352688631082
C           -4.76648621847392        1.03967596448958       -0.72678979537580
H           -3.42625449131253        2.22561539146349       -1.90779289771812
C           -5.02433300807661        0.50137539192883        0.52280347439680
H           -4.35593245017953        0.33690634062693        2.54972999639146
H           -5.44885281322828        0.86019526943663       -1.54342926123050
H           -5.90787579697084       -0.09758560322605        0.68338185039407
C            3.92169685461798       -0.79836980028097        0.15904336117825
C            5.14998186758204       -1.03221167807015       -0.45510975726114
C            3.04092585953479       -1.85701267931667        0.35187632175974
C            5.47926134891341       -2.30235962481291       -0.88831783371306
H            5.83062926556445       -0.20868693244089       -0.61616166186208
C            3.37784925719358       -3.12504700432071       -0.08152640538478
H            2.10046174419056       -1.68309372266336        0.84686712189990
C            4.59210773066042       -3.35010484146271       -0.70666671925442
H            6.42720352618702       -2.47228062606667       -1.37684987721735
H            2.68217618588261       -3.93772466580163        0.05865094283143
H            4.84626232697268       -4.33950745210188       -1.05597217361540
