65
 energy: -110.135085976222 gnorm: 0.000602029389 xtb: 6.5.1 (b24c23e)
Si           0.30299348811772       -0.75657203537041       -1.02076525510059
O           -0.45201382213242        0.64609005526701       -1.29468099851507
C           -0.23617969146548        1.94637443836487       -0.78887053378290
C           -1.46538109108797        2.38489841288256       -0.03398860372843
H            0.62153345822842        1.92742425655867       -0.11293185426892
C           -2.67906543182265        2.55730316438874       -0.68732304980130
C           -1.40352317166225        2.59210426063480        1.33740221715519
C           -3.79850224649150        2.96736753274797        0.01442021288249
H           -2.74937632358102        2.35797406201594       -1.74519870596544
C           -2.52711979220086        2.98630734162651        2.04265127056785
H           -0.46741154980563        2.44083918706570        1.85570077008929
C           -3.72593400836557        3.18510596544622        1.37971757556950
H           -4.73259812225724        3.11838289959166       -0.50637680362832
H           -2.46566641451896        3.14229169136605        3.11012507615259
H           -4.60157266315449        3.50323367578345        1.92684281222197
C            0.09089996819514        2.87755096202589       -1.96896494703672
C            1.32294856957998        2.45455784873954       -2.59980269321974
H            0.18424143664034        3.90291768262533       -1.60112965016034
H           -0.71685586253326        2.83005788465607       -2.70195053635203
C            2.33386570275711        2.04557460540962       -3.09111756795049
H            3.21387508655850        1.69141513523941       -3.53716467427329
Cl          -0.58124771265642       -1.59641006103633       -2.74273556354789
Cl           2.22526911547836       -1.28172267518121       -1.59041718400987
O            0.98644077127853       -0.08514810295727        0.60664954285197
O           -0.46474047860910       -1.97493676697413       -0.10677531592291
C            1.32864186740827       -1.83522094202999        2.11355800135644
C           -0.07541143097247       -2.01685949309820        2.23797498817998
C           -2.28385630624444       -1.75341635383482        1.32719239714516
C            3.16424856130058       -0.57351320928152        1.24548112797692
C            4.05824263494710       -1.35604526859993        1.94143876230449
C            2.24376296370021       -2.60973623017395        2.85562715160559
C            3.58970116370509       -2.40104652600286        2.75214862567516
C           -0.65801995122835       -2.31834855069795        3.48612564501910
C           -2.01048070660466       -2.26456073479666        3.66509044825458
C           -2.83329458086261       -1.91849427488601        2.57327721687542
H            1.85348843732083       -3.41138042525159        3.46092704755498
H            4.28742977084769       -3.02282102693857        3.28941519969947
H           -0.00049986954374       -2.51445870482286        4.31748637758211
H           -2.44974683904587       -2.45876010328018        4.62979561115975
H           -3.89946894179696       -1.82761476787050        2.69240088872363
N            1.84279154720432       -0.83415223592300        1.31716416900022
N           -0.94157785839931       -1.85421262793116        1.16844001505659
H            5.10943992031317       -1.13453034651958        1.87247881034133
C            3.62556323558648        0.60629419197954        0.49932335629218
C            3.08737485134891        1.86038143250197        0.76960162988114
C            4.65414794479439        0.48858757910366       -0.43004953840611
C            3.55786359840202        2.97715614068967        0.10407720095627
H            2.31655099618060        1.96149550454150        1.51976610672810
C            5.11818733362684        1.60815208461605       -1.09316526067262
H            5.05799045574275       -0.48691442414392       -0.65012549070307
C            4.57003984153312        2.85310376071288       -0.83103528643636
H            3.13273019699005        3.94671058016864        0.31693241521405
H            5.91011188248780        1.50822082821087       -1.82061457456318
H            4.92986355597505        3.72575782244489       -1.35493821065476
C           -3.13615975395310       -1.50190489473946        0.15537855724812
C           -3.10428605325899       -2.33031783638263       -0.96202420619674
C           -4.03078414876719       -0.43513120561228        0.19450252062107
C           -3.93771794166368       -2.07615784203589       -2.03526614152573
H           -2.42792008116918       -3.16870333801635       -0.99583047924631
C           -4.86161435333316       -0.18912723977009       -0.88133975615832
H           -4.05185179897295        0.21221910564351        1.05921882166895
C           -4.81275322082334       -1.00485753186966       -1.99987766177630
H           -3.88907595117374       -2.71275974336414       -2.90434054923743
H           -5.54762045584717        0.64381122740479       -0.84623806164079
H           -5.45712073047905       -0.80443680115811       -2.84297841516598
