65
 energy: -110.124885232263 gnorm: 0.000424204495 xtb: 6.5.1 (b24c23e)
Si          -0.37534102283173       -0.47806109363679        0.10650266400848
O            1.08350517070160       -1.16851457154141       -0.20608340684228
C            2.35389558392766       -1.01050770349697        0.35763691009675
C            3.23439649629884       -2.15650513395579       -0.07869923909528
H            2.77220741286091       -0.06678497347544       -0.01270463553395
C            2.69905641180639       -3.42380664695842       -0.25845044574336
C            4.59543110605854       -1.95781499515375       -0.26829401063136
C            3.51396192488390       -4.47729599395235       -0.63294436425148
H            1.63946662932436       -3.56802309967238       -0.11450403169746
C            5.41025672983046       -3.01319326148011       -0.63673817202482
H            5.01307157320663       -0.97017098617679       -0.12842833905028
C            4.87054146204217       -4.27510986396655       -0.82121744258553
H            3.08872680134679       -5.45966859468979       -0.77712753477292
H            6.46839813337926       -2.85058518072354       -0.78404277105053
H            5.50686004380643       -5.09776986044921       -1.11344812562866
C            2.34959449756773       -0.96131788955081        1.90192417308274
C            1.67642519599486        0.21011136745505        2.41254263419569
H            3.38885753531618       -0.96217971119577        2.24215918881000
H            1.84561089685672       -1.85359781008660        2.28026808147933
C            1.11063839912911        1.18413953493446        2.81957496236761
H            0.60580833000717        2.02096198353597        3.20180839829841
Cl          -1.19327406901234       -1.16858214770122       -1.65184066899932
Cl          -0.77725813288214       -1.67442524733532        1.79188934256414
O           -1.88075805772274        0.33714220406688        0.67955490654896
O            0.24588533522848        1.09058007035048       -0.37037947433569
C           -2.42588785947898        2.27656926849412       -0.49176304624854
C           -1.25963073329080        2.93766111057465       -0.00927336145994
C            1.10382366690177        3.10546858235964        0.34759849653820
C           -3.80230787891250        0.32271431162232       -0.61793303088832
C           -4.69664784437579        0.98283199123372       -1.43152842261020
C           -3.37699180509045        2.96957323881823       -1.26916173429447
C           -4.48527769641141        2.33215697432868       -1.75274875279891
C           -1.37089309016826        4.28195717655420        0.40689961840135
C           -0.29869474251595        4.99248172719170        0.86017182842570
C            0.97558804193307        4.39189369181461        0.80269097127981
H           -3.17143120314458        3.99426469088485       -1.53260023583149
H           -5.18764371920998        2.85334038708100       -2.38317914290991
H           -2.35681457978544        4.71785670071760        0.41472373983742
H           -0.41011091795823        5.99928432508979        1.22705721484652
H            1.86118669607642        4.94864924101227        1.05804227293283
N           -2.71253418608499        0.97522385521184       -0.16468778721630
N            0.00535914088393        2.36508760493262        0.03505912918294
H           -5.56485748711419        0.45662789022022       -1.78925264295096
C           -4.04300181046845       -1.06229125926221       -0.19283199992848
C           -4.34200950944739       -2.02612139310669       -1.15289351403939
C           -4.00750446347905       -1.42052979255234        1.15135050047944
C           -4.57743159099150       -3.33252508969630       -0.77182404690711
H           -4.34338256114640       -1.75169648441889       -2.19605941123638
C           -4.25134179670410       -2.72890292813499        1.52546487788998
H           -3.78750887919483       -0.67946477361729        1.90349738044826
C           -4.53080624687090       -3.68709305144607        0.56691491679505
H           -4.78964040167155       -4.07870487192426       -1.52284522305892
H           -4.20907774173082       -2.99957810318765        2.56917907400923
H           -4.70738107609440       -4.71090672979676        0.86157114581237
C            2.44690310622043        2.57099351181461        0.07554314183897
C            2.75773117105883        2.09893357059571       -1.19828777956472
C            3.44899291372279        2.64469498058500        1.03904818644922
C            4.05078139182009        1.70881928168362       -1.49788867447761
H            1.98882823157889        2.03954706003614       -1.95261946026398
C            4.73531812380656        2.23770930921031        0.73831384636749
H            3.21088752628523        2.99976137015193        2.02968249724384
C            5.04103919330071        1.77526854883245       -0.53156553317733
H            4.28253473583601        1.34389991688873       -2.48686406752767
H            5.50268674242776        2.28585114516861        1.49650533876627
H            6.04935375236058        1.46887761889178       -0.76830290937110
