65
 energy: -110.043958676397 gnorm: 0.000432289797 xtb: 6.5.1 (b24c23e)
Si           0.32922149319209       -0.42541526726920       -0.23940793007838
O           -1.41302580743647       -1.02237108316683       -0.31033208327040
C           -2.20490159913280       -1.23967870924010        0.63524166300502
C           -3.49655575520772       -1.80612167168308        0.43747017531822
H           -1.90261453578899       -0.98826064275269        1.65248287106762
C           -3.96337764774990       -2.08566202563089       -0.85961373354453
C           -4.32912099559568       -2.08397464314452        1.53540852005677
C           -5.22228999013521       -2.61069601694140       -1.04463351245147
H           -3.31190974047944       -1.87259351484792       -1.69254059947117
C           -5.58481942865220       -2.61270352423305        1.33678655023748
H           -3.96831357787738       -1.88079857947056        2.53307473621013
C           -6.03875704193970       -2.87357884262638        0.04897248901542
H           -5.57863141628458       -2.82062159347668       -2.04225248062885
H           -6.22203581987413       -2.82614528412072        2.18278673338318
H           -7.02642127294908       -3.28397055739294       -0.10019370350678
C           -0.25849939479457       -3.56098235659295        2.09166237002204
C            0.23305732789265       -2.38712386605179        1.83987424097788
H            0.29719328591359       -4.45949249152061        1.87912839252143
H           -1.23529687527398       -3.69097253156002        2.53028140089015
C            0.69518445418872       -1.23316612400464        1.48692448440661
H            1.27319079581805       -0.65588783407985        2.19908119084550
Cl          -0.26922312261047        0.69171349365846       -2.04208684944011
Cl           0.88539591784469       -2.14163823892616       -1.38225344853916
O           -0.14625516979890        1.04463298952093        0.81440405986083
O            1.98039313883272        0.32172008059273       -0.49287091996852
C            1.16861411551055        2.87734116467505        0.32776021300492
C            2.33958467323029        2.20782249228446        0.84425034701391
C            3.88196519883524        0.39616097149462        0.80580935013365
C           -1.14774651848768        2.86872344513902       -0.19819153260383
C           -1.04998456001128        4.13864877993966       -0.72520763235870
C            1.26368806954597        4.19118136356435       -0.14314944565351
C            0.17139310203668        4.81773677007767       -0.69050315078088
C            3.19938837040943        2.90072571184777        1.70709857977671
C            4.36453692531540        2.33314639326174        2.15527420943821
C            4.71502545096989        1.06435575164868        1.67813451940737
H            2.22921907495290        4.67099026296130       -0.12909712907671
H            0.25403368443620        5.81163567303040       -1.09914556816287
H            2.89975112172883        3.88316937576782        2.03604838204369
H            5.00652180116189        2.85440011264259        2.84632922420815
H            5.64013558231868        0.59648611355040        1.97092482689041
N           -0.05679782897745        2.27497246855499        0.32433824919441
N            2.70239734346438        0.94553184843871        0.43371242614556
H           -1.92997847157828        4.59709242979202       -1.14407150103642
C           -2.44572501554681        2.18387723444326       -0.11559145208620
C           -2.94549837004393        1.77030681121309        1.11523221142511
C           -3.21203879640091        2.00859597320683       -1.26335865308126
C           -4.20712003787059        1.20946786783750        1.19609405678444
H           -2.35400656818224        1.90696061343880        2.00867245891196
C           -4.46074676847486        1.42226588967287       -1.17729528523183
H           -2.80184446288437        2.29876783069815       -2.21738449498427
C           -4.96615979509867        1.03285781838936        0.05207353598951
H           -4.59883299632649        0.90623032382816        2.15569249385243
H           -5.04439780921928        1.27145332886942       -2.07283022295301
H           -5.94521971377768        0.58237367447627        0.11887752815809
C            4.32660437918301       -0.85949613536270        0.17496932306173
C            5.51119806338791       -0.81692870575274       -0.56008611216088
C            3.63738830709555       -2.05924474854035        0.29068701957128
C            5.98139200285154       -1.95353693624466       -1.18822367027005
H            6.04543001522551        0.11788516493881       -0.65600166152706
C            4.11599915569057       -3.19427699313140       -0.33881173210017
H            2.72952700089477       -2.11182932966664        0.86816178154113
C            5.28191402060348       -3.14485469366922       -1.08143087656437
H            6.89207553205937       -1.90694492851942       -1.76725279311299
H            3.56049077556048       -4.11478532715023       -0.25547194562408
H            5.64647872431256       -4.03071302668512       -1.57965049410205
