65
 energy: -110.138981637864 gnorm: 0.000873448554 xtb: 6.5.1 (b24c23e)
Si          -0.58355918027564       -0.58851280049411       -0.29053069689232
O            0.96552006567015       -0.71171290065550        0.19692733040937
C            1.66805144287335       -1.77417518616929        0.78936663702602
C            2.54262763197022       -1.26903054009309        1.91111971702119
H            0.94588004653823       -2.49702931433805        1.19110183073191
C            2.63626620091654        0.08292746287544        2.20673310436492
C            3.27921801418618       -2.17153681700340        2.67168562395842
C            3.46463312074267        0.53019829488732        3.22144294199941
H            2.04695804591332        0.78698921984433        1.64199729658318
C            4.10933798592002       -1.72589325192726        3.68320903260052
H            3.19358114438824       -3.23089819313650        2.47846195654385
C            4.21124004405324       -0.37180438203402        3.95765512990262
H            3.52375204054459        1.58803166526862        3.43627539308384
H            4.67780037151844       -2.43839742854560        4.26302403501857
H            4.86188224366518       -0.02483761005810        4.74687219294402
C            2.52728697000708       -2.48630100678988       -0.27741560211942
C            1.71112005318292       -2.95462386078951       -1.37572748738866
H            3.03711514585170       -3.33382241117082        0.18533509451383
H            3.27499812664486       -1.78636747754701       -0.65679594938149
C            1.01295932129207       -3.31686176063983       -2.27705720169528
H            0.39105552038064       -3.63849933214779       -3.05737971914282
Cl          -1.34768725214519       -1.05395385059480       -2.14129304371443
Cl          -1.32476832275826       -2.39013845999887        0.62811646783073
O           -1.52925538090140        0.29281727190606        0.84184498154283
O           -0.18181030832302        0.98976657505736       -1.10051506674575
C           -1.66750705586077        2.63799589074448        0.48126493809693
C           -0.26346005807577        2.80679065520274        0.35667063517894
C            1.81522692214323        2.09524724180400       -0.60258299595227
C           -3.59576405525800        1.21477219750656        0.34285022972718
C           -4.42663218530453        2.30061241925212        0.27009792461743
C           -2.53778187202637        3.74964739069984        0.52616755547436
C           -3.88960415561350        3.59658975423441        0.42090419006726
C            0.40787743238053        3.88997456799245        0.96136556854112
C            1.75435613038407        4.05511621102338        0.80634236243776
C            2.46864801724741        3.14302479426705        0.01374890430057
H           -2.10010549372581        4.73372869522429        0.56607601928328
H           -4.54379227637274        4.45311351381964        0.42077605481654
H           -0.16192780321282        4.55602649099712        1.58799120440548
H            2.27023333960309        4.87089806817843        1.28658989761410
H            3.52643359340905        3.26648097276586       -0.14247025064496
N           -2.26540091710146        1.39084404731970        0.51219105837463
N            0.48356571232462        1.95120303053028       -0.43075474901689
H           -5.48245922958808        2.14771008673478        0.12587065762675
C           -4.09712737542715       -0.17136069630289        0.27454559875737
C           -4.16594871535978       -0.95398498392875        1.42044402516659
C           -4.48617710038594       -0.69771548283108       -0.95136943077888
C           -4.62075765143663       -2.25653731995807        1.33748308184359
H           -3.85054140125760       -0.54435413736018        2.36826104756796
C           -4.92780157783868       -2.00571527728306       -1.02767848897989
H           -4.41041770942616       -0.09302431847655       -1.84234385046303
C           -4.99614954155347       -2.78471110576810        0.11445911126753
H           -4.66143465486657       -2.86531022463479        2.22761045726984
H           -5.20492013493967       -2.41825306012746       -1.98545961374850
H           -5.33055195629026       -3.80912487658923        0.05016553550606
C            2.56017233754441        1.17168360193544       -1.46797176687775
C            2.06556721880753        0.74873979230242       -2.69965666145266
C            3.82941429033539        0.75262041194888       -1.06757593820998
C            2.81957907403084       -0.08707253481580       -3.50245620127980
H            1.09297464299446        1.07088438690225       -3.03331922012250
C            4.58033400887121       -0.07701443807684       -1.87913304274692
H            4.21254899488322        1.04610681550354       -0.10124830739174
C            4.07701683633155       -0.50089739346085       -3.09915801486603
H            2.41904842241581       -0.41648907775458       -4.44857775535803
H            5.55820894584811       -0.40138649233954       -1.55310085555170
H            4.66100090951986       -1.15695652288871       -3.72690591348857
