65
 energy: -110.139093235201 gnorm: 0.000295846918 xtb: 6.5.1 (b24c23e)
Si          -0.57306990567513        0.53370985819907        0.38013098104465
O            1.00081515302242        0.77153760231330        0.03622676416288
C            1.71215034934407        1.94711586858823       -0.25550449331400
C            2.62324269281991        1.74092914377021       -1.43924918654692
H            0.99796722240300        2.74776615432677       -0.48503167910580
C            2.87077074833878        0.47874476407176       -1.95722723285094
C            3.24466617744448        2.84011265359934       -2.02247393746792
C            3.73319958096713        0.31185337653515       -3.02701779505397
H            2.37374126658612       -0.37414862253472       -1.52378646937256
C            4.10854709233427        2.67405015826085       -3.08866272079453
H            3.03972095388479        3.83122349607591       -1.64410688178065
C            4.35992486521040        1.40787719098093       -3.59197089104000
H            3.91381033228456       -0.67907408086495       -3.41954212170651
H            4.58470478624259        3.53585862746176       -3.53302120641340
H            5.03496925001721        1.27919830846288       -4.42528220261837
C            2.53819153267286        2.37235452987148        0.97751758086603
C            1.68070491293400        2.56867910222507        2.12561913163119
H            3.06465427715288        3.30094182323376        0.74547667443915
H            3.27146809079229        1.59442892404903        1.20155713530437
C            0.93808329860977        2.70762763662626        3.05296928157800
H            0.28084535788219        2.82963546340376        3.86067311372245
Cl          -1.47661453939038        0.58215142812731        2.22706020774098
Cl          -1.29453396847381        2.48864367792358       -0.17081292515861
O           -1.42020062637219       -0.08847973833583       -0.98107264448540
O           -0.19076957579402       -1.17604797915952        0.86122560144628
C           -1.54693319213590       -2.45642682328164       -1.12068901259870
C           -0.14956941310642       -2.64229903060011       -0.94798002585348
C            1.85116914161912       -2.15503026651228        0.27947391458527
C           -3.50273725157898       -1.09621683500352       -0.82899947724532
C           -4.31764625275022       -2.18036022532275       -1.02062614232525
C           -2.39311580497281       -3.54193871983935       -1.43585766343040
C           -3.75139637750513       -3.42000587557750       -1.38450098868284
C            0.57299470508763       -3.57177942417009       -1.72394908123623
C            1.90839846917232       -3.76822930478482       -1.51783939679996
C            2.55598951101804       -3.04978074862825       -0.50047255992835
H           -1.93616765266453       -4.49664547598388       -1.63940528221702
H           -4.38975652964209       -4.26403186947473       -1.58870399910396
H            0.05342646885332       -4.08748743962916       -2.51459635661522
H            2.46594612953985       -4.46239898434806       -2.12569969346504
H            3.60143301449515       -3.21044600561415       -0.30076134522008
N           -2.16135779783791       -1.23032480400802       -0.94046914491042
N            0.53283644245341       -1.97242942393587        0.04969707451352
H           -5.38293651761697       -2.06246042232225       -0.91940599866215
C           -4.03912873541683        0.24541501535123       -0.53406834196678
C           -3.98990515361531        1.25147364639043       -1.49143778823270
C           -4.59382501469827        0.50124921974217        0.71447446330885
C           -4.49316414628995        2.50503112236084       -1.19882280686347
H           -3.54772652092528        1.05208224103812       -2.45591724167109
C           -5.08228019268927        1.76180647982544        1.00380826450362
H           -4.60995538763942       -0.27721469291275        1.46221306334282
C           -5.03427496412701        2.76273381587733        0.04873840709180
H           -4.44298321782286        3.28661346589048       -1.94113729075261
H           -5.49036627310909        1.96295493702583        1.98249936460682
H           -5.40827010964441        3.74857204870405        0.28043287000377
C            2.52594117567171       -1.44491949500511        1.37407856491771
C            1.93763207470455       -1.28254954043683        2.62647334954608
C            3.82320180923876       -0.97214592800264        1.17032473209249
C            2.62718610179449       -0.64724140944002        3.64258828071719
H            0.94237600349690       -1.65185392620481        2.81056098022520
C            4.50893409678605       -0.34471198862726        2.19333563119616
H            4.28331528682774       -1.06356478659164        0.19739735053378
C            3.91209394074310       -0.17827272417601        3.43307867126940
H            2.15432053589366       -0.51856862617407        4.60375720928194
H            5.50974479807618        0.02347053557275        2.01865668508102
H            4.44571347507865        0.32058790161020        4.22794667674929
