65
 energy: -110.055802359711 gnorm: 0.000240132365 xtb: 6.5.1 (b24c23e)
Si          -0.77645676254806        1.59478019803753        0.60788576662246
O            1.32221456256335        1.01565994907803       -0.87208372042350
C            2.04379391236354        1.96737724936570       -1.08206770386801
C            3.47453053466261        1.87345902351320       -1.35803710275181
H            1.64241383937469        2.99168191671399       -1.05552444567168
C            4.09162377483785        0.62697113581421       -1.48388800704855
C            4.24291032222518        3.03499234189540       -1.45442200765885
C            5.45355541392802        0.54314641806658       -1.69054406502222
H            3.48303012969371       -0.26123570450148       -1.41507655016054
C            5.60567929911314        2.94509800935519       -1.66159080916450
H            3.76280903744200        3.99737492310599       -1.35615053651916
C            6.21121436585451        1.70184194722125       -1.77658872278382
H            5.92626945543333       -0.42341883742523       -1.77812996935368
H            6.20165837620925        3.84269197601571       -1.73261058225147
H            7.27746506262556        1.63654447606184       -1.93514852535338
C            2.88835550391870        1.77319867423735        2.25686044790228
C            1.70754940209771        2.22322362361803        1.95040917971055
H            3.74199778264339        1.91650652329035        1.61127721729726
H            3.07521185404386        1.28436539358692        3.20082350042698
C            0.51907139367480        2.59723035845101        1.61770379003444
H            0.19178537591963        3.59338077702018        1.88100403836958
Cl          -2.44870249674915        1.78720087676582        1.84142779687311
Cl          -0.95671523397845        3.18246147773619       -0.80743254828672
O           -1.53641073567844        0.64313036664423       -0.67070145951666
O           -0.25920324678031        0.04611298159511        1.34993874211736
C           -1.83202716033601       -1.65940248600961       -0.20616678399970
C           -0.44625155965665       -1.86900099127657       -0.00236491796905
C            1.64651054367978       -1.08383681554145        0.80102086918449
C           -3.66310120487782       -0.15545082630689       -0.43207578738350
C           -4.60138602891950       -1.15850345241536       -0.36292864429252
C           -2.76874342987435       -2.71992442327032       -0.21874796027980
C           -4.10880277506026       -2.49059519201085       -0.28593420222299
C            0.22261004313691       -3.02828307798785       -0.46244545159981
C            1.56832571337752       -3.17945605698365       -0.33041091831756
C            2.34057588596192       -2.16507103415553        0.30072930868291
H           -2.39297189504908       -3.72504275662180       -0.11445313521571
H           -4.80300110688447       -3.31534270139415       -0.28287904993661
H           -0.36074366542912       -3.77596652983476       -0.97523574753268
H            2.05174067873091       -4.07007093427525       -0.69793418950916
H            2.11988396424056       -0.26314366568079        1.32220166580726
N           -2.35081001210577       -0.40036981790723       -0.40026640228974
N            0.32604824077191       -0.96106011785464        0.68546053561486
H           -3.92332448748889        0.88782482588572       -0.51631947373129
C            3.79523595011292       -2.24636867324881        0.40724817155877
C            4.47808250467850       -1.64326440312168        1.46669396620725
C            4.54397268525653       -2.91510073096597       -0.56501581296562
C            5.85500045542116       -1.70232721597919        1.54518677297028
H            3.92247545176584       -1.14541898594529        2.24571039169447
C            5.92161979166086       -2.97329897476734       -0.48140834411345
H            4.04571891921822       -3.36830670154402       -1.40916632916897
C            6.58507868840177       -2.36662414007035        0.57255466889484
H            6.36434164083075       -1.23232519189806        2.37357374953660
H            6.48223057125451       -3.49188742496857       -1.24596706127717
H            7.66184719174343       -2.41224252994639        0.63637881603669
C           -6.03276654524446       -0.86230672626261       -0.37963897742367
C           -6.53682358451435        0.20775681393111       -1.12083411486926
C           -6.92618191206010       -1.64782796655253        0.35019470735057
C           -7.89078543431096        0.48058833647774       -1.12975629225384
H           -5.86630020424377        0.81364216396479       -1.71094596973867
C           -8.27898618714294       -1.36780990025704        0.34245788050843
H           -6.55339269748022       -2.46380323765929        0.95142754993826
C           -8.76749484615572       -0.30427192839459       -0.39827135714016
H           -8.26576280194035        1.30920486914742       -1.71207776358459
H           -8.95593366816486       -1.97967171626453        0.92056505173584
H           -9.82513363618160       -0.08748575730175       -0.40457214242573
