65
 energy: -110.133524113558 gnorm: 0.000945037141 xtb: 6.5.1 (b24c23e)
Si           0.31034610371345        1.23697929794023        0.90525711713617
O           -0.60304437383412        2.58639039472176        0.66795976890157
C           -0.91698526103617        3.22662753197063       -0.54348679425606
C           -2.19423549285365        2.65978692874513       -1.10874595935303
H           -0.09943052353684        3.08227138493044       -1.26218100963329
C           -3.27024133541589        2.42251495525324       -0.26236162055814
C           -2.31792568796007        2.37498576630702       -2.46082101949114
C           -4.45734410620288        1.91895216592511       -0.76389603392610
H           -3.16067387216759        2.62440107856050        0.79296144099533
C           -3.50426740836718        1.86733128163617       -2.96228642056705
H           -1.48079117677104        2.54986322451726       -3.12136308229517
C           -4.57732760330706        1.64263206892580       -2.11671770366400
H           -5.29043024514117        1.74319302715689       -0.09791057544694
H           -3.59173950178742        1.64657190703927       -4.01624594585265
H           -5.50433360136102        1.25185636892244       -2.51159985098769
C           -1.08041743796265        4.73426541859431       -0.26867909284886
C            0.18699085676687        5.32322782947898        0.10541230238564
H           -1.79482898292087        4.86159326443636        0.54781769389580
H           -1.46952330560865        5.22191048561837       -1.16692295628542
C            1.25759113135774        5.76753435888560        0.40124792827629
H            2.18923801445973        6.16826434895766        0.66802443493911
Cl          -0.28620485386040        1.18158854096254        2.86192514011422
Cl           2.02087322826102        1.95157625524248       -0.08481819303353
O           -0.50179005227670        0.27203101243966       -0.28810673305435
O            1.24043558932983       -0.27707413654569        1.40093461112270
C           -0.05358061606101       -2.07022764127926       -0.26142537032270
C            1.35605954887106       -1.91324249967221       -0.26866415598139
C            3.29212224702635       -0.76539363634321        0.49659837595546
C           -2.24134064531326       -1.16844800872938        0.05975483045934
C           -2.84246954254345       -2.40101450288110        0.02699041439037
C           -0.65993570644015       -3.34284406718432       -0.38119945947677
C           -2.00017243972720       -3.52143860117500       -0.23311073652965
C            2.20734238448169       -2.73505507611310       -1.04249775474051
C            3.55517946093790       -2.53982612053853       -1.07112621694543
C            4.14289531847707       -1.50844933375118       -0.29320957784703
H           -0.01308847925575       -4.19136173010442       -0.53606527418205
H           -2.43437903373656       -4.50433148697632       -0.31441620398237
H            1.75355437986336       -3.49479602352491       -1.65806522392684
H            4.18187174337638       -3.17321627807838       -1.67790712068632
H            3.63266435848368        0.03364751669192        1.13463122632508
N           -0.92251906288170       -1.00669303480235       -0.11414784184318
N            1.97621686812193       -0.97456295621728        0.52074025225996
H           -2.78606626764101       -0.24920029216301        0.21284476674946
C            5.57941122080827       -1.24103621403711       -0.32198878001332
C            6.25187035085627       -0.79377470731795        0.81652422760923
C            6.30946935575060       -1.42568696784219       -1.49738123023925
C            7.60914583258609       -0.54049980246867        0.77751278559492
H            5.71167175197934       -0.66690096990032        1.74232033616232
C            7.66608071619595       -1.16755766714573       -1.53266930576103
H            5.80439737307253       -1.74407833900547       -2.39696674422469
C            8.32220162248852       -0.72526784488472       -0.39600677150581
H            8.11542547449713       -0.19872183082310        1.66803751425671
H            8.21417507653241       -1.30800176494286       -2.45275533451089
H            9.38254644502219       -0.52459613815986       -0.42473533975308
C           -4.28236692886163       -2.55386823361376        0.23081420289616
C           -5.17568508681238       -1.60195452469196       -0.26148528641248
C           -4.78972869307699       -3.65931296550370        0.91425351884872
C           -6.53547515840300       -1.75118372422233       -0.06986698115518
H           -4.79882381763166       -0.75715089242071       -0.81723557111418
C           -6.15055974021941       -3.80148628980893        1.10713584074185
H           -4.11128811277995       -4.39467811681875        1.32068454493107
C           -7.02867190478485       -2.84950310812119        0.61593390051738
H           -7.21605980345759       -1.00928464218643       -0.46098685824259
H           -6.52860038697075       -4.65777105282643        1.64597303822754
H           -8.09162120434908       -2.96366119103735        0.76594891695810
