65
 energy: -110.129531450629 gnorm: 0.000726899015 xtb: 6.5.1 (b24c23e)
Si           0.00150602180312        0.91788238781949        0.64048509521194
O           -1.09805564367614        2.04756787490416        0.17549751430721
C           -1.11524144502889        3.44277794560893        0.29226177464972
C           -2.30115275628927        3.98252393877619       -0.46786846511829
H           -0.18438822390458        3.84904515858321       -0.13066666071098
C           -3.50574776878061        3.29300899709045       -0.45620572251757
C           -2.21416357133035        5.18760976773453       -1.15122004663015
C           -4.60619080655507        3.79751360412949       -1.12509211249543
H           -3.56379529737639        2.35475935784860        0.07376827817728
C           -3.31719953352337        5.69507915800864       -1.81494175783880
H           -1.27793425685933        5.72765796340293       -1.16392546981795
C           -4.51496686438795        5.00069795104258       -1.80419262799641
H           -5.53934180069232        3.25279545161485       -1.11456808274524
H           -3.24058834282126        6.63324912196835       -2.34519213314205
H           -5.37451317629098        5.39608807466457       -2.32552207719114
C           -1.21905364371552        3.88763146051963        1.76948078504591
C            0.04468274141790        3.74491115044980        2.45597286602734
H           -1.97479679620232        3.27099290997462        2.26168175630934
H           -1.53427035331537        4.93410438536513        1.79994772102422
C            1.11418951934694        3.62088565647461        2.97765369015524
H            2.04116894042983        3.51236444635038        3.45537196774457
Cl          -0.83999546100749        0.50378304919833        2.48177931680052
Cl           1.68895657046328        1.96972637407139       -0.01739636043308
O           -0.53138170498238       -0.11597453288278       -0.61085642298312
O            1.15323301195470       -0.47956273814616        1.18047175702768
C            0.25889049271652       -2.35712665277643       -0.61235781298223
C            1.62387215292469       -1.97991637513876       -0.54572461832039
C            3.30740900124417       -0.59526512667844        0.39927720155086
C           -2.03415693489908       -1.80704208754205       -0.24230187057567
C           -2.44553121045528       -3.11266762521383       -0.33495304417654
C           -0.15122977206012       -3.69445522576099       -0.81841401322640
C           -1.45112539503515       -4.07440697244051       -0.68520401411551
C            2.63225560811875       -2.60718027549957       -1.31101874440680
C            3.93249517417434       -2.20472039016209       -1.24364708475318
C            4.30678457851323       -1.15207470240919       -0.37026063516814
H            0.61145874911546       -4.42701345122897       -1.02867097969521
H           -1.73763104293393       -5.10156509388400       -0.84053634691395
H            2.33639776001507       -3.38841012831006       -1.99240876357921
H            4.68356656091862       -2.69217134065334       -1.84409375396386
H            3.48499567952525        0.20540432036650        1.09863276275664
N           -0.76001082819749       -1.44305199899672       -0.43202684004967
N            2.03999278827162       -0.99987285226376        0.32470025882988
H           -2.70072596489197       -0.98742425141081       -0.02546007004751
C            5.68676299939683       -0.67884495378213       -0.27662804560633
C            6.21461671513886       -0.23951096581212        0.93855383154336
C            6.50696888140832       -0.65937243759640       -1.40567169285265
C            7.52097176309856        0.20171269442175        1.01940670957237
H            5.60430484871876       -0.26845572484796        1.82841441506238
C            7.81147519650082       -0.21259360567019       -1.32117075352057
H            6.10957687148356       -0.96846153227767       -2.36091675177402
C            8.32501608713610        0.21745497495601       -0.10882058126456
H            7.91655666344573        0.53303703724569        1.96816170719586
H            8.43039349698443       -0.19631582096106       -2.20626037016105
H            9.34535736870737        0.56404103491202       -0.04372717642994
C           -3.83855921772237       -3.49526639788927       -0.10796528837832
C           -4.88573726895214       -2.64096797650455       -0.45788886428533
C           -4.14941199415900       -4.73198660334825        0.45951541670998
C           -6.19873796445123       -3.01427318070234       -0.24697007376915
H           -4.66913705858793       -1.69066606815826       -0.92167903405865
C           -5.46411545465892       -5.09958805287302        0.67210123510039
H           -3.35415957552767       -5.39705304928905        0.76156751845039
C           -6.49430048711508       -4.24415393365143        0.31836076821468
H           -6.99756352440033       -2.34426522417514       -0.52859729748559
H           -5.68673591040556       -6.05756472826472        1.11851702521845
H           -7.52126319178001       -4.53391817030141        0.48207208849983
