65
 energy: -110.128901162978 gnorm: 0.000553863954 xtb: 6.5.1 (b24c23e)
Si          -0.10744201892320        0.90378336386469        0.00541245416709
O           -0.60977757505842        2.43485316211899       -0.04038222912039
C           -1.47175234545748        3.21480684639037        0.74917555677456
C           -2.41671713170591        3.98677808795425       -0.13464973417866
H           -2.04188126913806        2.56791368002355        1.42547217349573
C           -2.03531213404354        4.37057038022595       -1.41281118539374
C           -3.67360162211930        4.34154277617436        0.33830303310150
C           -2.90375647710784        5.09503988352089       -2.21016066823904
H           -1.06212392083578        4.08215824672354       -1.77913258990093
C           -4.53735576428320        5.07242421503014       -0.45737610758422
H           -3.97458427013561        4.03845935935016        1.33124926514253
C           -4.15435069507731        5.44970029376115       -1.73378091361319
H           -2.60281618887906        5.38333510242606       -3.20670072747898
H           -5.51342769701532        5.34411408811577       -0.08229738499418
H           -4.83162095885275        6.01621042603212       -2.35619259054410
C           -0.60927145101692        4.18232326192871        1.58619607962069
C            0.22608520852983        3.43814522302167        2.50294592544980
H           -1.26421053801778        4.86034484276213        2.13882337537154
H            0.01899813868476        4.76380172937478        0.90625198631347
C            0.90297491784156        2.76508198507269        3.22426759619447
H            1.48833187535164        2.18955131483339        3.87681060050745
Cl          -1.50490142766995        0.26653399361763        1.57197207907185
Cl           1.35284842510633        1.49727066783255       -1.46424628748374
O           -0.63701563481416       -0.31205130443557       -1.08196393447527
O            1.04556498240755       -0.01990464440116        0.89443854127809
C            0.23031779892049       -2.39736988528730       -0.38526664800768
C            1.58058478684108       -1.94487365484725       -0.35133730068391
C            3.21586723589739       -0.29255008963937        0.18758918333154
C           -2.11560650397426       -1.97583830869120       -0.51472078245975
C           -2.45008930790729       -3.27866431646818       -0.23465476371687
C           -0.08609586502858       -3.75958085240205       -0.17819324091499
C           -1.37316318647106       -4.19813404819431       -0.09631714175514
C            2.63232531579631       -2.73485310391931       -0.86767994874606
C            3.92299296379931       -2.29885734143494       -0.88027532168448
C            4.25002982727658       -1.02091155333033       -0.34984685086442
H            0.73103297554345       -4.44494092285955       -0.01938501194694
H           -1.58234105696525       -5.24093467225325        0.07813503524120
H            2.37569272775098       -3.68277845129354       -1.31287386632847
H            4.70168743637539       -2.91897443998125       -1.29365185256578
H            3.34210123829609        0.69223339571013        0.60722919977126
N           -0.84728971506736       -1.57450879725479       -0.63205380767613
N            1.96418119461262       -0.75398241959435        0.22233074084608
H           -2.84656916037380       -1.19515798790126       -0.65103904897254
C            5.61812498828694       -0.50542853574367       -0.36573054001924
C            6.09762301522015        0.28484636816026        0.68000548177917
C            6.47643947420436       -0.80292244986156       -1.42490851737871
C            7.39519804501658        0.75820344613714        0.66624297269312
H            5.45625805145466        0.50763891109257        1.51917814631160
C            7.77201255732325       -0.32308640257193       -1.43702624899461
H            6.11553522899528       -1.38773404465705       -2.25749515695244
C            8.23796950982841        0.45633147159949       -0.39117030252461
H            7.75343789875145        1.36348322985324        1.48581198110217
H            8.42155000763656       -0.55569588288668       -2.26797901714856
H            9.25168640727644        0.82753667524967       -0.40030208143541
C           -3.84420122004509       -3.69485028741352       -0.09008203707134
C           -4.85365138882185       -3.10776184836600       -0.85452258615146
C           -4.19189535774999       -4.69391983703296        0.82022217212614
C           -6.16727893492077       -3.51076164694071       -0.71260448587232
H           -4.60292194384436       -2.34920946301093       -1.58047446168963
C           -5.50772729744076       -5.09022658824515        0.96230751038964
H           -3.42985931964038       -5.14003541742029        1.44153620421590
C           -6.50033051100294       -4.50279714830149        0.19543986760196
H           -6.93641325146674       -3.05078506396641       -1.31527464984879
H           -5.76129363300401       -5.85894902032188        1.67736252361404
H           -7.52779845910309       -4.81534699701022        0.30549233885470
