65
 energy: -110.138168483304 gnorm: 0.000496638703 xtb: 6.5.1 (b24c23e)
Si          -0.36197001700128        1.48735816280881        1.19556576568285
O            0.44076985793727        2.48037846098914        0.20237176091083
C            0.52073001763044        2.51162740132256       -1.20754761914105
C            1.58891958425050        1.55582293096472       -1.67198520997778
H           -0.44534054423138        2.21997122291422       -1.62945924147563
C            2.86111937884254        1.62161083210179       -1.11580548343350
C            1.31920894733718        0.59306408207944       -2.63367808665093
C            3.85592002336792        0.75882518880155       -1.53797097869738
H            3.06196780407160        2.35125795440119       -0.34556651694332
C            2.31283282304032       -0.27618152209978       -3.05066390546492
H            0.32739350591113        0.52660882911253       -3.05708197082965
C            3.58458923197091       -0.18705000156700       -2.51235265718273
H            4.84470832237819        0.82145339653878       -1.10788797998914
H            2.09369696679848       -1.02090564979538       -3.80224566381065
H            4.36509200507621       -0.85270016234436       -2.84876706722006
C            0.84128210486527        3.95621853424999       -1.62763259523525
C           -0.28548927182366        4.82119008000284       -1.35036038350550
H            1.07406875075064        3.97516723111234       -2.69592625091018
H            1.71022713387577        4.30338854071211       -1.06481806827572
C           -1.24557406556405        5.49137242577247       -1.10487933392547
H           -2.07035466239342        6.10114608057247       -0.88652420967602
Cl           0.48533723247239        2.42299522787456        2.87503413351064
Cl          -2.31786310686052        1.76871462249331        1.80210896748295
O           -0.98318425099146        0.51824165118700       -0.30369995277375
O            0.32039006775378       -0.00290445284298        1.72302075178990
C           -1.13446696030327       -1.78599571102829        0.03991509123700
C            0.26539319863964       -1.86865764161816        0.24014370910287
C            2.30057319714568       -0.85230362595753        0.96182670065792
C           -3.06784896924413       -0.43694344108963       -0.26938627019763
C           -3.92047037578114       -1.52018160879504       -0.25606917316365
C           -1.97513555459422       -2.92131371163334       -0.00794232567245
C           -3.32634735893138       -2.80292846286378       -0.13822585261793
C            1.04447666180151       -2.94384470928631       -0.24734155049920
C            2.40223505017597       -2.94365153307063       -0.16842200302259
C            3.08706290510994       -1.84162450893044        0.42486377821431
H           -1.52117826456019       -3.89124182879137        0.11511236211045
H           -3.94872335624471       -3.68291815930352       -0.16047259277283
H            0.52843348698116       -3.75517543790884       -0.73512415583258
H            2.96553679868451       -3.77970658378748       -0.54835603610483
H            2.69725539734347        0.00812144816041        1.47708501872250
N           -1.74660759077202       -0.56855173025250       -0.14971981464459
N            0.96450732204862       -0.89003368403608        0.91625098793434
H           -3.41502160919494        0.57943126315974       -0.36148833746194
C            4.54517586997855       -1.76602061465613        0.47293249261782
C            5.19948710923787       -1.07524456748716        1.49600070509850
C            5.32240215886391       -2.37870386406685       -0.51271824278683
C            6.57777933804223       -0.99024070540084        1.52139842833000
H            4.62778834860141       -0.62108672495983        2.29039219401353
C            6.70039478461245       -2.28718177895334       -0.48620673119465
H            4.84233949001882       -2.90835755492652       -1.32149817211388
C            7.33542701060553       -1.59087178348368        0.52890313371172
H            7.06512926218784       -0.45406221597192        2.32214652632494
H            7.28353699601196       -2.75901261064942       -1.26357592759664
H            8.41239051640728       -1.51955625488406        0.54836437471809
C           -5.36716409492810       -1.34134660822566       -0.36620061591771
C           -5.90680862195910       -0.31666226568212       -1.14541540782933
C           -6.23998912705977       -2.19327192331857        0.31208966644031
C           -7.27468110011403       -0.15193279389029       -1.24171505453980
H           -5.25042776829395        0.33951213665644       -1.69655198370997
C           -7.60748289082342       -2.02130770978237        0.21729628419350
H           -5.84299164243890       -2.97523468656282        0.94214976189049
C           -8.13093140118000       -1.00186651296431       -0.56063469634770
H           -7.67637832150469        0.64296800829472       -1.85252791867270
H           -8.26911599389095       -2.68305084073885        0.75662394090450
H           -9.19974074014443       -0.86938252867698       -0.63467749778011
