65
 energy: -110.139004262330 gnorm: 0.000807232129 xtb: 6.5.1 (b24c23e)
Si           0.35081914998385        1.73072150561608       -0.56288466634284
O           -1.23241411843261        1.61981540426403       -0.20858260992121
C           -2.07218658426431        2.21736677370097        0.75615338690680
C           -2.53594468001497        1.09220078544993        1.65726855084791
H           -1.48319605328886        2.93716653508647        1.34111160119973
C           -3.86020082824865        0.70253284580896        1.79433733157873
C           -1.55211453020121        0.37259811939116        2.33027512820849
C           -4.19263668501782       -0.37860762844086        2.59426795278234
H           -4.64896887820479        1.23552534907593        1.28731638505638
C           -1.88153418271046       -0.71886378603895        3.11006386912308
H           -0.52106337239156        0.67985830570783        2.23405768005726
C           -3.20714414796829       -1.09703486552273        3.24609090725378
H           -5.22976449915352       -0.66089912191057        2.70051277096613
H           -1.10464366479716       -1.27017319068340        3.61995708933784
H           -3.46927982731010       -1.94373097289372        3.86398123662651
C           -3.19187909654848        2.97020381265809        0.02741466045954
C           -2.61355831627067        3.99608369756315       -0.81733347660385
H           -3.85729939534478        3.42916094190293        0.76250560588774
H           -3.75896115637308        2.27192959959913       -0.59526118764191
C           -2.08337652181686        4.81159300746553       -1.51329870852159
H           -1.63050625729316        5.53243859061926       -2.12530924609822
Cl           1.04004839022660        2.54094388488971       -2.29927422488875
Cl           0.81826652134169        3.39270805855735        0.69368550156617
O            1.41743660802478        0.84365593138551        0.45804309911574
O            0.13139018577790        0.17855237439867       -1.53983619681596
C            1.58101737836535       -1.50833709206125        0.06358016976449
C            0.18990748395608       -1.68851667616809       -0.13641192260316
C           -1.83952152053376       -0.89698415916193       -1.07873557139848
C            3.48101220427081       -0.06286241115837        0.07719720501299
C            4.37409941976473       -1.10412437063239        0.06718634587564
C            2.47893544552883       -2.59695712646495        0.16024968822085
C            3.82785252575272       -2.41842919545420        0.15908999020079
C           -0.53842600934809       -2.77377432660270        0.40162531139966
C           -1.88582035931683       -2.88067545505781        0.23425614298969
C           -2.59391492192956       -1.90512886681544       -0.51554643718928
H            2.06116326318023       -3.59075722880451        0.17880110674197
H            4.49094053402453       -3.26508204291788        0.22870923357635
H           -0.00474991398825       -3.49352483408403        1.00095407242611
H           -2.41684105744857       -3.71253347169801        0.66686022619170
H           -2.25926701178197       -0.10256152158696       -1.67349140174214
N            2.15540476955952       -0.25385999743086        0.12932101596622
N           -0.52212436970054       -0.81104775448063       -0.91629923650673
H            3.78053553640837        0.97373134719259        0.06452891050073
C           -4.04445950992706       -1.94402657180144       -0.67944560234851
C           -4.66057749118495       -1.38349171675085       -1.80130600789379
C           -4.85536347910579       -2.53256538942880        0.29366068138433
C           -6.03482036960864       -1.40219167453379       -1.93677871999455
H           -4.05881339868709       -0.95177481172056       -2.58635605382644
C           -6.22953164119448       -2.54684153654312        0.15533103128706
H           -4.40789542243601       -2.95565867798220        1.17942170387774
C           -6.82723260829838       -1.98032848760178       -0.95827595412730
H           -6.49157104972752       -0.96616889939212       -2.81302764490639
H           -6.83970614050349       -3.00028549489128        0.92284983517883
H           -7.90143397275572       -1.99147840657309       -1.06479851812228
C            5.81688110328768       -0.87484955189723       -0.00725864099166
C            6.40019317939144        0.23847825424227        0.59975058377242
C            6.64099594939440       -1.77443390269830       -0.68489296518750
C            7.76461840158304        0.44241445831839        0.52984854861607
H            5.78435999824954        0.93320977492231        1.15020724871354
C            8.00454906386577       -1.56356699649311       -0.75629608515096
H            6.20571670380776       -2.62855142708748       -1.18221263070326
C            8.57228298240716       -0.45621108615776       -0.14813177144454
H            8.20151902918404        1.30562021075424        1.00939769673773
H            8.62769768291196       -2.26524093565722       -1.29094853087982
H            9.63822953287593       -0.29436490529400       -0.20206949356220
