65
 energy: -110.051373737519 gnorm: 0.000526680198 xtb: 6.5.1 (b24c23e)
Si           0.80636751538047        1.73325480434171       -0.70855046763846
O           -1.25666326110432        0.87421629853072        0.74143537855213
C           -2.33039862456841        1.43882036910300        0.77930990844337
C           -3.51535331032446        0.90837593105127        1.44282604670076
H           -2.47322835975026        2.39907374300417        0.25881261192534
C           -3.41169982770594       -0.19228142726024        2.29686792663557
C           -4.76650424971083        1.48102246419622        1.20769824147843
C           -4.53720231108896       -0.69914160253963        2.91285501222304
H           -2.43572775375303       -0.62226857961312        2.46695924745664
C           -5.89134049758261        0.95627921070669        1.81187537085217
H           -4.84605768036466        2.32810870880955        0.54234526524679
C           -5.77763682937754       -0.12808966143574        2.66879101133970
H           -4.45430432704736       -1.54051208696470        3.58488993722778
H           -6.86005840206492        1.39357598201995        1.62232999083314
H           -6.65839644557389       -0.52771142824268        3.14891840085229
C           -1.62941874942922        4.87677933333049       -1.07506500786655
C           -1.10088445438803        3.74654385060063       -1.42189279375066
H           -1.15753104313233        5.81115500141872       -1.32940717306254
H           -2.54607279340266        4.94183783840342       -0.51131206361408
C           -0.53853711026318        2.62467010056691       -1.73981647735081
H           -0.78085642556899        2.16800219184779       -2.69051634160829
Cl           2.50595723948762        2.03539055008982       -1.86721335517078
Cl           0.86281969200644        3.16759587794253        0.83053258365600
O            1.51033259281058        0.67196528162427        0.49812200593414
O            0.38872553737779        0.15640460887675       -1.63085457573029
C            1.67637442019426       -1.63573914270350        0.00041101888680
C            0.29263963002585       -1.74667660403662       -0.28740289125720
C           -1.65289177301013       -0.79301906280073       -1.25034953271651
C            3.58877504786914       -0.25067202996582        0.28104600514625
C            4.46074947633680       -1.31446198454322        0.25076038743422
C            2.53609126226479       -2.75557689760624        0.06204044228519
C            3.88564554105231       -2.61284352415986        0.17840505086645
C           -0.50747042493810       -2.83055331790564        0.13916086880696
C           -1.85219896887636       -2.84934278292043       -0.07106997685133
C           -2.48577548921167       -1.77705634041213       -0.75827295576788
H            2.09653280115562       -3.73474800754656       -0.04190189042573
H            4.52381047690135       -3.48082883985859        0.21656315273179
H           -0.03013219837177       -3.62296819401536        0.69315747911658
H           -2.44029843346346       -3.68165386141127        0.27907313913945
H           -2.01431878202457        0.04953340861177       -1.81841612061042
N            2.26456850708694       -0.41053686285059        0.21200544705580
N           -0.33808717719784       -0.78695987757638       -1.04140432588604
H            3.91289667801555        0.77461769133831        0.36756091502395
C           -3.93484566638483       -1.68695925223393       -0.90245640652080
C           -4.52427411567930       -0.96301968162786       -1.94303026786638
C           -4.77842242933806       -2.29947585742589        0.02872783332457
C           -5.89648440193625       -0.84835467520453       -2.03846805579213
H           -3.90544316303591       -0.50521178752973       -2.69941978309313
C           -6.15019049439948       -2.18135426070047       -0.06968051361843
H           -4.35664026154220       -2.84994710691009        0.85513101518221
C           -6.71826386236999       -1.45298895205002       -1.10099361674440
H           -6.32989844963754       -0.28683411545931       -2.85299536528367
H           -6.78090272786663       -2.65864923675968        0.66588931711644
H           -7.79103272298569       -1.36079037018808       -1.17712841434023
C            5.90782748881099       -1.11410039715931        0.31495924712386
C            6.45538154400712       -0.06627544635919        1.05713165004192
C            6.77260406073490       -1.97367511918780       -0.36409002096095
C            7.82366758562258        0.11217822149513        1.11749603665941
H            5.80617573247249        0.59656413500210        1.60837753793683
C            8.14040582350170       -1.78838338034700       -0.30447883571068
H            6.36846361912998       -2.77412362050859       -0.96601754885583
C            8.67201686127323       -0.74684903584338        0.43776530761613
H            8.23179289232273        0.92463598963599        1.70020233912767
H            8.79562784264442       -2.45780209611063       -0.84243425380414
H            9.74118112996834       -0.60474808462035        0.48560390198003
