71
 energy: -116.472808366504 gnorm: 0.000779106837 xtb: 6.5.1 (b24c23e)
Si          -0.06959680678977        1.07121682408072        0.75762752281400
O            0.97089337469308        1.67961171722183       -0.32323137603604
C            1.59278601926332        2.94553020584351       -0.29174132711325
C            0.57573258910307        4.04178506810654       -0.47512233717988
H            2.09043216888687        3.07100015688910        0.67843098363404
C           -0.44928408590010        3.88295774255538       -1.39776667117843
C            0.63993983820631        5.20242505578658        0.28181791058727
C           -1.40034126994540        4.87327778721723       -1.56073412665950
H           -0.50744284377833        2.96615693028817       -1.96529635532916
C           -0.30912305879075        6.19526080652414        0.11351888902572
H            1.42557658928961        5.31866440495224        1.01394102140553
C           -1.32989940198988        6.03270854548584       -0.80738568675371
H           -2.20000031758092        4.73942161952282       -2.27455337572123
H           -0.25775042292624        7.09315577503763        0.71155465357850
H           -2.07469483844729        6.80513467344641       -0.93159833688774
C            2.63868537571323        2.98071877807745       -1.41874115424735
C            3.72365227026208        2.05985073879200       -1.15784759851127
H            3.03241919774616        3.99717747104278       -1.50104506195613
H            2.14801533868801        2.71122190180301       -2.35693986141684
C            4.60618064365413        1.28877994300362       -0.91520335698795
H            5.39701671700084        0.63016271400462       -0.71275362808056
Cl          -1.96556913926331        1.83236966302332        1.13723654052916
Cl           0.72179944054762        2.01431245096053        2.53381788650778
O           -0.73957413807900        0.10535841074124       -0.65630703936117
O            0.44608539835964       -0.42779872906422        1.43930851748794
C           -1.04835318061303       -2.13839457301545       -0.06825215956305
C            0.37988543138482       -2.25643451645936       -0.05861190400439
C            2.43285720370629       -1.22103993339507        0.60439918943720
C           -2.89245741381597       -0.67822047102558       -0.44891050272719
C           -3.81524279558747       -1.67190274135004       -0.19954718827781
C           -1.95655510371429       -3.17132604820571        0.25488960332908
C           -3.30710443351505       -2.93626463564865        0.18355238747014
C            1.12419577627611       -3.20483677331027       -0.79646076761071
C            2.49576227269221       -3.14955548647183       -0.79035725864425
C            3.19337730451842       -2.13754721839517       -0.07867656149606
H           -3.99270373647225       -3.72821637440208        0.44030514487800
H            3.05566229202658       -3.87086559223664       -1.36419342561559
H            2.84742200982824       -0.37958433990440        1.13582545200833
N           -1.58202783427238       -0.90567774572411       -0.38411230435630
N            1.10193536579434       -1.31110914234975        0.64036849949381
H           -3.16898457548779        0.33809877844576       -0.67524817840447
C            4.65194653284501       -2.04447196897455       -0.09285425440941
C            5.34617254505268       -1.60388591679249        1.03626655275095
C            5.38087587613523       -2.38354843680338       -1.23392287505461
C            6.72398290131649       -1.50258943996177        1.02018044752937
H            4.80121411269213       -1.35499641512230        1.93416473439363
C            6.75860712869292       -2.27598286880664       -1.24698490427091
H            4.86200030633172       -2.69951605414025       -2.12641231190745
C            7.43632998524440       -1.83617512402086       -0.12130086673191
H            7.24593900090648       -1.16058861970317        1.90165677680812
H            7.30724305627813       -2.53043534007383       -2.14199016569930
H            8.51255567017012       -1.75160124278596       -0.13381352408493
C           -5.24980168567968       -1.40550747195515       -0.28739248901149
C           -5.75206232708530       -0.50631046197053       -1.23009206351092
C           -6.14973639925340       -2.04187157037334        0.56908738802767
C           -7.10758118122615       -0.25526735897562       -1.31197181606225
H           -5.07594235590020       -0.01892588828198       -1.91597912865766
C           -7.50445947334520       -1.78492011026518        0.48629718437204
H           -5.78329792771363       -2.71865113638361        1.32624665047031
C           -7.99027202003811       -0.89254153670236       -0.45494542162117
H           -7.47974325129856        0.44025858950742       -2.04968099053509
H           -8.18537617155472       -2.28006468691244        1.16302747865932
H           -9.04941176429296       -0.69343749594766       -0.51875120001697
C           -1.46858732685333       -4.48557663098462        0.78673434097810
H           -1.61777923241690       -5.28049870976264        0.05825109951027
H           -0.41673821780748       -4.43849802169234        1.05077322274458
H           -2.03879632217602       -4.74600836797920        1.67645023338593
C            0.44035609859767       -4.20609118009429       -1.67815031935272
H            0.97671968096771       -4.28415353341381       -2.62134144595983
H            0.44256843223926       -5.19212121293438       -1.21699175641615
H           -0.58571289149469       -3.91671462959193       -1.88285023439235
