71
 energy: -116.472511502104 gnorm: 0.000474213016 xtb: 6.5.1 (b24c23e)
Si           0.11728679993011        1.04180599984939        1.46395751366853
O            1.08467945915654        2.03577452267515        0.62578176026580
C            1.04107520752125        2.41333358835307       -0.73249736041149
C           -0.24846367944965        3.11950829080692       -1.05583597929973
H            1.12757292016342        1.51236343999734       -1.35283257589516
C           -0.79277113099122        4.01645098779198       -0.14685889494658
C           -0.91475832563286        2.86903899620482       -2.24694354398353
C           -1.99445668449725        4.64464413791706       -0.41930824981575
H           -0.27986221005131        4.20119387889688        0.78502283532399
C           -2.11381782065778        3.50239212979198       -2.52215046832581
H           -0.49660097598103        2.16681341008742       -2.95454760682943
C           -2.65743872976276        4.38873306252091       -1.60755745356877
H           -2.41559383834390        5.33159720686568        0.29933438599117
H           -2.62899475519020        3.29792308248491       -3.45001377557205
H           -3.59787508108267        4.87608681393692       -1.81951690633186
C            2.25411705954286        3.32481668975559       -0.98965381172125
C            3.48682145286941        2.57616240801815       -0.86955709719234
H            2.17416961876848        3.75331531729393       -1.99223918981190
H            2.24461625579059        4.13113703382576       -0.25309134912460
C            4.47809067233728        1.91352678394595       -0.76757376536242
H            5.36206004096235        1.35699526488551       -0.67310331718559
Cl          -1.81721828523055        1.38310594754057        2.10370988474829
Cl           1.01107576492363        1.64218427517489        3.27290814993339
O           -0.57994787602838        0.40043952729171       -0.19859380129045
O            0.65441302942869       -0.57689855101228        1.71208215699062
C           -0.78823735759716       -1.92257753002286       -0.17669196357214
C            0.64551390601874       -1.97499531221878       -0.19836042882966
C            2.65913419495956       -1.00472874264145        0.67146074425051
C           -2.69310585968632       -0.49040988276725       -0.19724410104249
C           -3.57226455123697       -1.55363286491353       -0.19707395491128
C           -1.65008098446321       -3.03976787288173       -0.11559790540597
C           -3.01013398560887       -2.84931257375324       -0.13014777655509
C            1.42311278112713       -2.66671118503445       -1.15373014829862
C            2.78877467818859       -2.52444480665846       -1.15631663143375
C            3.44919550246760       -1.66692469885303       -0.23383353943560
H           -3.66106752608396       -3.70768630835771       -0.07611229944848
H            3.37109124647528       -3.04819583256080       -1.89741143516725
H            3.03604938073347       -0.29306747163179        1.38843655812577
N           -1.37552631590980       -0.67456819177385       -0.18298122585467
N            1.33715170359823       -1.19316946432170        0.70853167626374
H           -3.01025396245908        0.53945983971312       -0.18054582027625
C            4.89561539957793       -1.46139067544318       -0.26417318835743
C            5.60569285566509       -1.22218116416864        0.91460385512785
C            5.59742510859451       -1.48840392135156       -1.47095671088291
C            6.97117628142531       -1.01535672421257        0.88401273908623
H            5.08534591281173       -1.21601942470193        1.86011464536284
C            6.96288479761294       -1.27739968278595       -1.49697262600746
H            5.06476910191658       -1.64039470518337       -2.39776686552532
C            7.65621450251997       -1.04133239295934       -0.32078904617025
H            7.50528406559103       -0.83301798345692        1.80469088283703
H            7.48871157051257       -1.29064795110892       -2.44053483995081
H            8.72292772189527       -0.87647127526040       -0.34299199260487
C           -5.01677647398993       -1.33243080085189       -0.22292526398479
C           -5.56038306416982       -0.25579886467251       -0.92631898449913
C           -5.88389392359219       -2.19016242129399        0.45568384803263
C           -6.92569491699912       -0.04955023506536       -0.95188827417695
H           -4.90841473474467        0.40954404929134       -1.47227889444416
C           -7.24848084641884       -1.97725536581760        0.43110992276833
H           -5.48431460334052       -3.01073741087116        1.03242626223478
C           -7.77608269431008       -0.90860648165828       -0.27457834519351
H           -7.33082489999869        0.78516961526006       -1.50469968470882
H           -7.90434522069425       -2.64592482835790        0.96914554330314
H           -8.84297199189567       -0.74471715208222       -0.29441375851635
C           -1.10383744410076       -4.42223043976793        0.07928781259323
H           -1.22897046607716       -5.02190945656069       -0.82064212581490
H           -0.05175227709335       -4.39652052544117        0.34568928256180
H           -1.65279811154802       -4.91498204237596        0.87954969766580
C            0.77492455278930       -3.47070674499886       -2.24078235155767
H            1.29570182386089       -3.29874469606904       -3.18035746407322
H            0.83789167296636       -4.53504750101589       -2.02095559834086
H           -0.26915743778605       -3.20000014323943       -2.36494976542398
