71
 energy: -116.472842861100 gnorm: 0.000813588410 xtb: 6.5.1 (b24c23e)
Si          -0.69027614069273        0.84882898284250       -1.21156590310454
O           -1.79537592664861        1.04063942584461       -0.04526187866738
C           -2.89048422236680        1.92869929178889       -0.03417132015238
C           -2.42003390981016        3.35932773834706        0.00929398856966
H           -3.48254791485963        1.77177803423503       -0.94463702077202
C           -1.32477533647085        3.70272739142333        0.78977378662992
C           -3.05950558315394        4.33740993332137       -0.73818428071376
C           -0.87085623206815        5.00856591633929        0.81848170087143
H           -0.81811188015949        2.93241201487533        1.35183131984463
C           -2.60928134737440        5.64529457430535       -0.70254907516051
H           -3.90087486867382        4.06825885794426       -1.35978817459758
C           -1.51428557036460        5.98268309436393        0.07447414022785
H           -0.01047638083332        5.26638120641539        1.41850949017184
H           -3.10764316728787        6.40046434975720       -1.29236432135522
H           -1.15791000692822        7.00217619564623        0.09318342220903
C           -3.74364820203322        1.59669147321935        1.20176568553939
C           -4.34050571104735        0.28428713790270        1.08242513161766
H           -4.52713274508702        2.35175688125981        1.30295722833650
H           -3.10166500328680        1.62758021698679        2.08514320993416
C           -4.82022625398930       -0.80377421984083        0.94909582071061
H           -5.25246521384072       -1.75403475529674        0.84757506522178
Cl          -1.92563342902036        1.36075418434095       -2.90936005833523
Cl           0.73280208440755        2.26492887371008       -1.74518244697995
O            0.40005444328628        0.25632083157518        0.14754430446822
O           -0.60993229244978       -0.74197008705286       -1.86962054380002
C            1.56997683811688       -1.66340537521123       -0.50712725642944
C            0.32315049140511       -2.36497567593938       -0.42373375179986
C           -2.02240126622659       -2.26474539954447       -0.89034725272722
C            2.66735656631084        0.42653267710707       -0.18426577957563
C            3.90130431465364       -0.09683991017370       -0.50703453521781
C            2.80133582858158       -2.22560598407493       -0.91353913602726
C            3.93650692641661       -1.45376075583201       -0.90660730048653
C            0.09702350598805       -3.53442949566757        0.33785924003643
C           -1.17322674245062       -4.04342868575204        0.44481757403382
C           -2.28250035554162       -3.40504691380176       -0.17174656767365
H            4.87064425361049       -1.88885236662056       -1.22529634223158
H           -1.33867216472661       -4.92927683755029        1.03723522008612
H           -2.78720897252144       -1.67043325800257       -1.36382688824849
N            1.56529887879751       -0.32057216590630       -0.18998513030333
N           -0.77823129269282       -1.80472762061009       -1.03780581130703
H            2.51389595111912        1.46500729050703        0.05755327664212
C           -3.64631081207888       -3.90997088389503       -0.02487728058827
C           -4.56480992666592       -3.79485723249928       -1.07077975087368
C           -4.06310681555322       -4.50767229195691        1.16598422053980
C           -5.85744177560003       -4.26078726027016       -0.92636336444090
H           -4.25644736869434       -3.35218670676413       -2.00573347499284
C           -5.35848725574912       -4.96772744662318        1.30758138248511
H           -3.37758717306258       -4.57964940410427        1.99697855682303
C           -6.26079385101754       -4.84787134347589        0.26289990642848
H           -6.55537777288182       -4.16563317404301       -1.74493697214289
H           -5.66842082755992       -5.41665847447905        2.23992409853402
H           -7.27251853685923       -5.20739278919733        0.37527618474913
C            5.10202758825124        0.73604898871386       -0.47197393772656
C            5.24310649785757        1.73975825923112        0.48827067467800
C            6.13263910333041        0.54776185822894       -1.39387629241307
C            6.37827025667608        2.52522569405903        0.52469093018110
H            4.46648419037548        1.88779111955686        1.22321369031583
C            7.26439510866189        1.33902004516327       -1.35688052271162
H            6.03294737731931       -0.20240247869047       -2.16393741144856
C            7.39398376735459        2.32917985046722       -0.39701494841338
H            6.47366758390886        3.29409601644312        1.27725030112936
H            8.04863351892708        1.18584827861148       -2.08366776514282
H            8.28001943413392        2.94528195878382       -0.36855881075552
C            2.86652658782192       -3.61969759407935       -1.46222407565601
H            3.39196875482929       -4.28384608004190       -0.77860381281922
H            1.87410685455034       -4.01634973900416       -1.65135704306744
H            3.42050187732366       -3.60953355084401       -2.39904403203390
C            1.20259022937717       -4.17031185677250        1.12591862830826
H            0.82712414471171       -4.46688931341502        2.10283733855385
H            1.56450291465997       -5.06773321340569        0.62718407009753
H            2.03396537551885       -3.48624430283742        1.26407568291432
