71
 energy: -116.470557940271 gnorm: 0.000488984214 xtb: 6.5.1 (b24c23e)
Si           0.19916309782762        1.44826405815154        0.51352903208250
O           -0.54740245346977        2.76847441979714       -0.12593591589183
C           -1.89072079143080        3.16889732358328       -0.05629668402837
C           -2.75854865560018        2.39168723167877       -1.01336731981600
H           -2.25328707726482        3.02015798847134        0.96998444737065
C           -2.25490620288663        1.98180258754531       -2.24065459049454
C           -4.07744406325328        2.10146112159369       -0.68725061728691
C           -3.05513128168746        1.28079578317728       -3.12498506183587
H           -1.22653871777238        2.20045748316718       -2.48265082962349
C           -4.88324648565287        1.41718699298794       -1.58093864600083
H           -4.47110484424022        2.41150758998843        0.27042770386507
C           -4.37234159722567        1.00187296464835       -2.80012057338314
H           -2.65257555720152        0.95711522455785       -4.07382225810017
H           -5.91019030943792        1.20417575776539       -1.32144613335012
H           -4.99954108631641        0.46104209037877       -3.49431758353956
C           -1.95565677381971        4.67020588384001       -0.40206376436459
C           -1.27210152704920        5.45546029886112        0.60230484971997
H           -3.00296896703452        4.97758772981172       -0.46608937497303
H           -1.47692530532370        4.82263312784701       -1.37251999733287
C           -0.69625908281689        6.06918019254858        1.45228459733967
H           -0.19106419226887        6.61902547731398        2.18855139056061
Cl          -0.88026472358562        1.33337901893238        2.28834788224517
Cl           1.97341303851527        2.22606185268280       -0.23306885910764
O           -0.39295133010343        0.28833366278550       -0.61923219272296
O            1.16574952562793        0.07781340761660        1.33395563820972
C            0.17299135623332       -1.96372960136463       -0.11662844320349
C            1.56601849040963       -1.62858459217309       -0.20984825632887
C            3.32633131087938       -0.26450998888325        0.63561360209037
C           -2.07841769980208       -1.14610122047679       -0.01815998046405
C           -2.58888591832969       -2.38596703504157        0.27040525380541
C           -0.31326278640963       -3.25413262738685        0.19349286129408
C           -1.65949683506006       -3.45617886609836        0.37090790238948
C            2.49519334999712       -2.26776669658974       -1.06024205722537
C            3.81969256276578       -1.90655780656702       -1.01460856864262
C            4.27788812536952       -0.90436775212384       -0.12914964145063
H           -2.01734212698945       -4.44150542674878        0.62322132029346
H            4.52090045665017       -2.39030203191570       -1.67634040233329
H            3.55318018693634        0.56379848476402        1.28520015723665
N           -0.77153182868850       -0.96046572548506       -0.23480807778970
N            2.04254625490132       -0.61100966764703        0.58762977894619
H           -2.68127794973284       -0.25399396124764       -0.08162913479416
C            5.68547650546472       -0.51726123901603       -0.05163774337731
C            6.24945759918189       -0.12815156401324        1.16433734310470
C            6.49316623137625       -0.52452771672094       -1.18926165400646
C            7.57905348842503        0.23810249117561        1.23819474394244
H            5.64459595277094       -0.13476636061919        2.05855173355624
C            7.82119449354393       -0.15187131902964       -1.11204631820998
H            6.06904692593978       -0.79236937629443       -2.14527546295128
C            8.37080092655758        0.22817798309090        0.10118411470107
H            8.00198029286323        0.53187620919174        2.18759144742954
H            8.43071547103072       -0.15316442601343       -2.00385814142718
H            9.40937215953331        0.51718099595778        0.16009516618979
C           -4.02052528329655       -2.58173964761127        0.49295444169725
C           -4.95692019445361       -1.85328588171612       -0.24199421188564
C           -4.48025163683374       -3.50028152693559        1.43743513552642
C           -6.30982388855509       -2.03847844152128       -0.03513308756878
H           -4.61813303440776       -1.15444706748213       -0.99160828896074
C           -5.83467158510183       -3.67903399857547        1.64317251136960
H           -3.77194376135381       -4.05475775302520        2.03465931957528
C           -6.75530136972779       -2.95105121325845        0.90749427312021
H           -7.02277262162174       -1.47154051827823       -0.61561477619553
H           -6.17494718962827       -4.38769730327277        2.38396398375179
H           -7.81332230508643       -3.09387444748990        1.06831014476350
C            0.62494315731187       -4.39618216845914        0.44637223010644
H            0.62742199891284       -5.08486604433807       -0.39669862237119
H            1.63863405379351       -4.04944296079568        0.61981945762673
H            0.29121970344452       -4.95021586856006        1.32111988949132
C            2.04001454291320       -3.25274077079448       -2.09556142349556
H            2.46233165103494       -2.97795840913745       -3.06043808800605
H            2.39017866716776       -4.25588634779219       -1.85913816870705
H            0.95800246315415       -3.26572006341286       -2.18170840214399
