65
 energy: -118.574146748570 gnorm: 0.000547447426 xtb: 6.5.1 (b24c23e)
Si           0.43976433879856        1.77880776796485       -0.41053478670235
O           -1.15042937517745        1.63218229104877       -0.10836397485621
C           -2.06016884547910        2.34203966079313        0.70694794757104
C           -2.80810817285697        1.27873793835667        1.48369166118403
H           -1.49175613621892        2.97914538482369        1.39860969038632
C           -2.04367783279912        0.37840923794776        2.22123915359935
C           -4.18365909926963        1.10429655344888        1.43905652088313
C           -2.63481106719786       -0.68650284190935        2.87228649725549
H           -0.97421987195673        0.52236153971810        2.27434860008196
C           -4.77727612423646        0.03762975103816        2.09480375134214
H           -4.80944189206256        1.79508424419201        0.89610825188459
C           -4.00654634521021       -0.86625160387705        2.80167519980760
H           -2.02531223289776       -1.37664458260462        3.43764773278429
H           -5.84834930336910       -0.09001806723702        2.04262174838857
H           -4.47217141602489       -1.70196753232445        3.30255697809453
C           -2.93565826837744        3.23635003525263       -0.17978912017599
C           -2.10904314139486        4.20361449099069       -0.87359734102859
H           -3.66529363319039        3.75958615342872        0.44304058171676
H           -3.45365603555679        2.62175170769749       -0.92161559966802
C           -1.38796358433311        4.96857582808475       -1.44344939145197
H           -0.75720811788274        5.64138634793045       -1.94208063928698
Cl           1.21058304238152        2.54899263575674       -2.11636002476601
Cl           0.87191167172290        3.38494496128328        0.89451342338556
O            1.44170594524224        0.83674844675403        0.62510714890451
O            0.22593275529738        0.17453943181917       -1.42786897012570
C            1.48382140319681       -1.52849859935515        0.30180189285911
C            0.09738385492089       -1.63795859940736        0.04101561016429
C           -1.81066950478949       -0.84944046898222       -1.12431894828403
C            3.46077086482557       -0.19903204370686        0.22109000749601
C            4.30215185459608       -1.28360920932419        0.28810855836665
C            2.31455956071192       -2.65108394592848        0.50939058938026
C            3.67153415270101       -2.54291151459753        0.50816619503404
C           -0.71998978621939       -2.64397339419549        0.59761057444386
C           -2.05193424242120       -2.70882868106418        0.32161326796674
C           -2.65854980473229       -1.79343402010773       -0.57440381823848
H            1.84496199712129       -3.61696014705944        0.59715245301744
H            4.28979747603742       -3.41811095005100        0.61815422069503
H           -0.27369610545738       -3.32627476594821        1.30193202630482
H           -2.66860600625872       -3.44646741333209        0.80735730679574
N            2.11953203438017       -0.29664032537550        0.29630418449059
N           -0.50462153486322       -0.76751933265982       -0.83875721766766
C           -4.08743544115132       -1.85982321869940       -0.88120554253202
C           -4.74842221478417       -3.09033061786487       -0.86977522001301
C           -4.82725005742406       -0.71108370143335       -1.16530809035657
C           -6.10414739743572       -3.16523856862581       -1.12200564154899
H           -4.19219736750483       -3.99805347641498       -0.69031395119429
C           -6.18369673391573       -0.79121574043025       -1.41300967759406
H           -4.34411120435680        0.25121388239848       -1.17306182633877
C           -6.82981926823982       -2.01592189576326       -1.38909272830140
H           -6.59710423395772       -4.12615727579906       -1.11387467244110
H           -6.74138038355165        0.10891751930558       -1.62449814818384
H           -7.89026665684453       -2.07584194618764       -1.58215944439571
C            5.75548654476591       -1.15600489248943        0.16509344111609
C            6.59769848592025       -1.94525947267984        0.94938979473857
C            6.32225639040632       -0.26046484026508       -0.74238186247190
C            7.96970497287404       -1.83719506651875        0.83069962211907
H            6.17466979093278       -2.62445724934300        1.67458720512615
C            7.69544963348521       -0.16022251782888       -0.85825188652473
H            5.68783653617880        0.34582903557758       -1.37004136742276
C            8.52366524777274       -0.94611552174845       -0.07394791960082
H            8.61015335502394       -2.44820025315077        1.44946425290499
H            8.12082574138729        0.53442030880350       -1.56664254322071
H            9.59613624133299       -0.86390830681332       -0.16555073743857
F            3.91263939063468        1.04478587007413        0.15493530279316
F           -2.21805084325259        0.00725157661624       -2.04867830125471
