65
 energy: -118.570566257315 gnorm: 0.000687731723 xtb: 6.5.1 (b24c23e)
Si          -0.17392286624503        0.98676293472467        0.61218977141941
O            0.53165651142335        1.69129325284652       -0.65763718735160
C            1.22699353206640        2.91487136613793       -0.73268859498426
C            0.32134102984129        4.08360124940130       -0.44318846046803
H            2.04975072174553        2.89985754366103       -0.00650368355657
C           -1.00080949462847        4.05349403519024       -0.86444813742271
C            0.79492510945901        5.19307057351116        0.24221508117740
C           -1.84416576909682        5.11507634695437       -0.59119726193782
H           -1.37036779224849        3.18362091800105       -1.38726639932061
C           -0.04739888413611        6.25760622146250        0.50762347244541
H            1.81974757413272        5.21312371550638        0.58284923923960
C           -1.36829590113354        6.21965319729135        0.09399347542442
H           -2.87517352165183        5.07652024186688       -0.91069848935823
H            0.32532392148042        7.11427645113713        1.04966165450626
H           -2.02768563746086        7.04693342648972        0.31226478314452
C            1.79489232108300        3.02057257168272       -2.15997838942470
C            2.64815750950809        1.89524091780423       -2.47457953992958
H            2.35745765928002        3.95322663481733       -2.24968002193720
H            0.95932684222032        3.03858900998996       -2.86437921015669
C            3.33223033105334        0.94741535209374       -2.73109447012070
H            3.93561445795401        0.12583518617871       -2.98033018091235
Cl          -2.11932957435949        1.13082503427766        1.31207062638458
Cl           0.58887049395824        2.23134284820313        2.16854215910879
O           -0.73495210279909       -0.20676621022841       -0.71213362252943
O            0.63481343929873       -0.34182874351346        1.35092234030799
C           -0.85441123503015       -2.40488365493715        0.08611922818250
C            0.55358023269911       -2.43487612804406        0.22983592198738
C            2.58988084266071       -1.22637904600722        0.51480878267687
C           -2.80258506857951       -1.19781497629178       -0.53090701508021
C           -3.65432426434185       -2.24494294104540       -0.23805544052485
C           -1.68135037507913       -3.52370465105959        0.32119339730662
C           -3.03592538981092       -3.44474904075131        0.19119985625630
C            1.33650212691241       -3.56957553793034       -0.07339124911887
C            2.69492694620127       -3.50337177823823       -0.13087588415654
C            3.38243946803360       -2.27829610644495        0.11781963444070
H           -1.21692849617650       -4.43058835364070        0.67160942823105
H           -3.65787030057661       -4.29119576852543        0.43252478863575
H            0.82408107393566       -4.48197449944954       -0.33074407658720
H            3.26827852838913       -4.36923747856479       -0.41682799191885
N           -1.47361216615412       -1.25891714500325       -0.36488624779742
N            1.25326129945353       -1.31138670260548        0.63312153451320
C            4.83587630964643       -2.16562501065736       -0.01207911160814
C            5.65232714415990       -3.25608617109610        0.29625302321218
C            5.43510597430980       -0.98282226557215       -0.44982828540264
C            7.02440149269548       -3.16591220084739        0.16644790960595
H            5.21202497674163       -4.16916817035239        0.66804608376433
C            6.80828447457730       -0.90122940159905       -0.58093303295130
H            4.82720196529313       -0.12789919490796       -0.70201052224392
C            7.60843603498771       -1.98998596349407       -0.27586785061811
H            7.64191391645629       -4.01626844869458        0.41565495249342
H            7.25556757754694        0.01937900715164       -0.92495365888702
H            8.68094883159304       -1.92212726580946       -0.37812586563843
C           -5.10735574861603       -2.11721373981900       -0.35909157268054
C           -5.87560575753502       -3.18700117092376       -0.81912107721502
C           -5.74603288999013       -0.93420590047885        0.01546964914256
C           -7.24968663331333       -3.07359896980811       -0.90687065901927
H           -5.39060483627871       -4.09995268456473       -1.13253291092124
C           -7.12126106704185       -0.83056756912998       -0.07139934097799
H           -5.16512405645703       -0.10822409205701        0.39610776258317
C           -7.87703500318953       -1.89645286384769       -0.53204838287581
H           -7.83385786508275       -3.90606813252173       -1.27055438355438
H           -7.60636870781372        0.08682665010947        0.22626614421420
H           -8.95132461903062       -1.81138275660370       -0.59866546612707
F           -3.23655191787824       -0.09044550754337       -1.11198322338278
F            3.09244727093860       -0.06099744388793        0.89656119829356
