65
 energy: -118.571653860813 gnorm: 0.000761635651 xtb: 6.5.1 (b24c23e)
Si          -0.34554382788328        1.24401346660482        0.81587518909363
O            0.54884079523681        1.83341231486487       -0.38610889412573
C            1.51293079251550        2.85744276082913       -0.42456927161937
C            2.75136539793033        2.33678864854904       -1.10880185260801
H            1.75262245227680        3.17424362449113        0.59780009928595
C            2.64173864996337        1.39650097951502       -2.12528930516303
C            4.00762488276303        2.80256902008238       -0.74450388716257
C            3.77351448941771        0.93102796925514       -2.77139671407378
H            1.66278514907799        1.02708106926513       -2.39144774404435
C            5.13826981039207        2.34115582022202       -1.39563021289626
H            4.09694953376071        3.52432039668246        0.05401871495235
C            5.02378129880708        1.40714957933914       -2.41197949156601
H            3.68119112576563        0.19531996612651       -3.55752437924902
H            6.11184598537357        2.70893755673072       -1.10633679910926
H            5.90599512419303        1.04614370345852       -2.92060481603618
C            0.93328358766187        4.05757460015369       -1.19854026130315
C           -0.20266171170474        4.60590643120169       -0.48905654415744
H            0.61721899347199        3.71638068902785       -2.18779763814581
H            1.70967386355955        4.81844335774980       -1.31196371387931
C           -1.14209011127295        5.00591580267207        0.13438305344347
H           -1.96655194131662        5.36814355269751        0.67162725011742
Cl           0.45619384441208        2.32059559569875        2.46532820304563
Cl          -2.29511220155921        1.69239993439449        1.32561509881094
O           -0.97630255477820        0.12308973217080       -0.57367017194879
O            0.21330672724814       -0.19699701525364        1.57425174426170
C           -1.51208112455846       -2.01148923545715        0.22834008287782
C           -0.14001530508920       -2.26667553232724        0.46215313083301
C            2.04113380086398       -1.35629563676888        0.77103813900170
C           -3.18531029589949       -0.51591577437724       -0.54130292177532
C           -4.21654086877054       -1.40163083331754       -0.29504361110123
C           -2.52704522611825       -2.97204073705085        0.42168439816345
C           -3.83800194636871       -2.67450307926609        0.19523615005650
C            0.47280506974288       -3.51750131752654        0.23118412531523
C            1.82794279532635       -3.65029237684896        0.21127122617653
C            2.67648748685567       -2.52240538820137        0.41567449720709
H           -2.24289193472556       -3.93380621898215        0.81563047228635
H           -4.60716903049286       -3.40026890771194        0.40319157761073
H           -0.16203360773337       -4.35613716762962       -0.00303563128321
H            2.28021526013812       -4.60126263898978       -0.01583670617410
N           -1.89929170673047       -0.78842452137460       -0.27814727377717
N            0.70509491238360       -1.24822571272857        0.87008964108994
C            4.13166549308201       -2.60296676484132        0.28072085162397
C            4.81634939356511       -3.74763877983720        0.69150989113597
C            4.85627234353943       -1.54283625911502       -0.26559970924125
C            6.18963702454341       -3.82503618075884        0.56356390633074
H            4.27293997396123       -4.56625571500051        1.13953345206685
C            6.22913103248431       -1.62870814577502       -0.39290448142814
H            4.34590236765472       -0.65664529545765       -0.60884580397047
C            6.90120923061108       -2.76714635972620        0.02051270176862
H            6.70850493148048       -4.71300551954841        0.89323075119079
H            6.77398057078713       -0.79941209124984       -0.81795330836656
H            7.97453507325381       -2.83026846562727       -0.07700950752431
C           -5.61563115249121       -1.03739855440668       -0.52418915675405
C           -6.51633326229842       -1.97306517618618       -1.03327260414922
C           -6.07186907226659        0.24268797158216       -0.20661783763579
C           -7.84146742525342       -1.63313994386650       -1.22645664936344
H           -6.16935564811089       -2.96013068728291       -1.30218679673648
C           -7.39983638385418        0.57292663152121       -0.39856341280871
H           -5.38921277724902        0.96655438232062        0.21130520069815
C           -8.28760911382346       -0.36040700877472       -0.90888726047591
H           -8.52875296723578       -2.36301699907585       -1.62835182094974
H           -7.74456991044144        1.56396949525891       -0.14482671433835
H           -9.32417866435243       -0.09801076271368       -1.05865654616663
F           -3.39143342115958        0.62986726494973       -1.17073113898642
F            2.70510592944076       -0.26442451435962        1.12585504164120
