65
 energy: -118.566110755240 gnorm: 0.000662272348 xtb: 6.5.1 (b24c23e)
Si          -0.07057125801288        0.90037077518508        0.11681566636414
O           -0.67296610183718        2.38639270826749       -0.06663016170425
C           -1.55965493372800        3.17838872436359        0.68315564295285
C           -2.50336004087026        3.90522572179956       -0.23848954863205
H           -2.12736460392595        2.54416357803533        1.37330627465922
C           -2.09007255736028        4.29625291551304       -1.50452002458889
C           -3.78596490698149        4.22213299181286        0.18925784691686
C           -2.95170290091726        4.99117128308620       -2.33451870974421
H           -1.09580506755295        4.03807084944631       -1.83528087671559
C           -4.64326889839542        4.92426487495686       -0.63879253119004
H           -4.11239959062319        3.91305347040793        1.17214484017395
C           -4.22786978243627        5.30981958019436       -1.90239736307786
H           -2.62482658289008        5.28725086927452       -3.32061183690265
H           -5.63986751830206        5.16641752543168       -0.29926761742787
H           -4.89959518366024        5.85465669572074       -2.54968943727365
C           -0.72974413265109        4.19525110662075        1.49615696614562
C            0.20279406749792        3.50339778414430        2.35870321324210
H           -1.40615242861050        4.81853226891299        2.08581035742120
H           -0.17465288052607        4.82841537314526        0.79844024235295
C            0.97455094677189        2.86556423806659        3.01380643471082
H            1.65319577240388        2.33097052471937        3.60814451774010
Cl          -1.38669372849071        0.29339199919186        1.72564603448603
Cl           1.45495702736114        1.49315652644706       -1.27526875082593
O           -0.60890774392554       -0.28717646809338       -1.00717219382404
O            1.05220211336518       -0.13765312027869        0.97780587202789
C            0.22395308781473       -2.41798344947868       -0.39610227653703
C            1.57968766059691       -1.98779766344552       -0.36937756069242
C            3.22906380905632       -0.38153144995279        0.24830039202888
C           -2.11291109726923       -1.93669358978190       -0.42967884951845
C           -2.48092480681364       -3.23791435979311       -0.17185181531648
C           -0.12204433440893       -3.77831471473214       -0.24802413005938
C           -1.41818324958571       -4.18105040380245       -0.12703429793958
C            2.61992128000726       -2.74999459052701       -0.94086390229187
C            3.90830872426099       -2.30386336687107       -0.95709126028950
C            4.25676770167629       -1.06133318219683       -0.36698637258883
H            0.67935300492283       -4.49226926466499       -0.15114316970758
H           -1.65359527817055       -5.21771785490312        0.04854108374316
H            2.35700565723571       -3.67014520318435       -1.43637709023107
H            4.67706422889884       -2.87479393718329       -1.45159174351453
N           -0.83616295958868       -1.54802774928706       -0.57567170191213
N            1.96648044908097       -0.83170888576368        0.27424822726873
C            5.62004386743808       -0.52994338898142       -0.40823570235222
C            6.71471774793542       -1.38145790463625       -0.25922119251569
C            5.84033896873963        0.83197903250430       -0.61577214131562
C            8.00091611058132       -0.87896068108377       -0.30650876515772
H            6.55447887027806       -2.43437983293433       -0.07894243804444
C            7.13006129226609        1.32556590709149       -0.66653824985103
H            4.99997455830421        1.49292572756423       -0.76113913684675
C            8.21262933259923        0.47504379778414       -0.51003745775119
H            8.84165735069552       -1.54529900337584       -0.18118378317941
H            7.29130930271215        2.38007761227367       -0.83188982746563
H            9.21877879491801        0.86496329359329       -0.54721410707430
C           -3.87699275854510       -3.62389249750485        0.03684727310742
C           -4.35571334118358       -4.83610272211609       -0.46116151393151
C           -4.74138804325869       -2.79711441338854        0.75552361722188
C           -5.66960148136838       -5.20770670747055       -0.25104978221979
H           -3.70251217754774       -5.47443726395654       -1.03764176309421
C           -6.05300464443064       -3.17806308665081        0.96496353363830
H           -4.37727857807646       -1.86879750075356        1.16776212071409
C           -6.52206422546972       -4.38113542494376        0.46285724431709
H           -6.03127414587652       -6.14472867524993       -0.64811757359300
H           -6.71222731558910       -2.53329233028207        1.52628938511873
H           -7.54807099085659       -4.67453515739667        0.62684666503641
F           -3.00262235443109       -0.98533235344095       -0.66068199077035
F            3.43428989673864        0.70796344255466        0.96903619628339
