65
 energy: -118.563574538262 gnorm: 0.000753564103 xtb: 6.5.1 (b24c23e)
Si           0.11842354632389        1.18967746703627        0.41855310959496
O           -1.02276351698246        2.21888130144873       -0.15212585338277
C           -2.42367678542042        2.20958359781331       -0.07066065729094
C           -2.94890396466850        3.52858926216072       -0.58378722141812
H           -2.79779084960544        1.39180188413157       -0.69942664015961
C           -2.28507280867879        4.70782720593938       -0.27476558341135
C           -4.11719743214514        3.57981269560511       -1.33154969155151
C           -2.78094408607050        5.92225282502542       -0.71367765662821
H           -1.37213678790155        4.65991537861752        0.29887614089583
C           -4.61577284509877        4.79578961751447       -1.76469037408912
H           -4.63563297376544        2.66315222611434       -1.57644106698217
C           -3.94843460216164        5.96915259782016       -1.45673146897614
H           -2.25619266478217        6.83527389307501       -0.47326885829442
H           -5.52521454017369        4.82715336206423       -2.34731500717200
H           -4.33673992023092        6.91773498052733       -1.79797243956729
C           -2.94892023743693        2.01291957907165        1.36970466413769
C           -2.69579539394501        0.69222841149822        1.89867968401415
H           -4.02678607315006        2.19743950113693        1.36290438813935
H           -2.46379944463889        2.74797013436866        2.01669839084151
C           -2.47750696177450       -0.40051202028008        2.33824607144520
H           -2.27919705594820       -1.34512280541194        2.75122601295150
Cl           1.56500676900258        1.88137804486280       -0.86117376182801
Cl           0.15341360607282        1.89698479654453        2.36664493974755
O            1.22554596064814       -0.10084564549549        1.16515735902549
O           -0.60163839536684       -0.13609318527129       -0.50671688084328
C            1.69280382287922       -1.90118295817870       -0.25954831219525
C            0.34284552150442       -2.33108343539969       -0.22626540498413
C           -2.00001449925301       -1.92207212545475       -0.24972318679529
C            3.35583704374753       -0.31593290434224        0.34015373207992
C            4.35726760963621       -0.96556578648211       -0.35253703769848
C            2.70456832994095       -2.63754029785304       -0.91521707805536
C            3.98745077563253       -2.18183632027297       -0.97742061764986
C            0.02643590387701       -3.70947726228830       -0.18017105604375
C           -1.25192279809946       -4.16249659675564       -0.09338681985163
C           -2.34353370995998       -3.24716817894932       -0.12231462390333
H            2.42188887439567       -3.53904429238755       -1.43295928767390
H            4.73352346666138       -2.72733585517420       -1.53193858509472
H            0.84927886915294       -4.40414858975687       -0.14359981006396
H           -1.45640147570179       -5.21491647465300        0.01003027405093
N            2.09393960820057       -0.76450666612688        0.39867246217285
N           -0.73357157743162       -1.45623309232321       -0.25617152649133
C           -3.73531632464974       -3.69056607236471       -0.04448424622105
C           -4.12131043639893       -4.89923343004987       -0.62705994869670
C           -4.69350474255690       -2.93308724851445        0.63231211777620
C           -5.42888826859945       -5.33481050464355       -0.53735997552410
H           -3.39857172467861       -5.48499126185152       -1.17535207648741
C           -5.99899117258103       -3.37670323561722        0.71950429759364
H           -4.41374385372616       -2.00422724921544        1.10612516986022
C           -6.37241725801000       -4.57683362114439        0.13703842828137
H           -5.71455514920139       -6.26880447748224       -0.99821682398138
H           -6.72833077003832       -2.78259416034521        1.24933406461635
H           -7.39355810724758       -4.91980774419858        0.20728609637033
C            5.71636598811704       -0.42825382959038       -0.42948087972915
C            6.81654148095618       -1.28345280414577       -0.36495195867974
C            5.92780081703560        0.94188616526193       -0.58672415528230
C            8.09953606471048       -0.77752770382006       -0.44607886199171
H            6.66401966886714       -2.34334436027830       -0.22261134746029
C            7.21431374617172        1.43890764340649       -0.67255264601451
H            5.08280394892140        1.60867806358659       -0.66326930280206
C            8.30249612264191        0.58427501613794       -0.60041203515214
H            8.94465717574838       -1.44731809115540       -0.38515321577429
H            7.36828664225340        2.49987391227586       -0.79845385340926
H            9.30617554259264        0.97707012436712       -0.66400706720540
F            3.60146259121333        0.74189957818232        1.09395198350451
F           -2.92131228882489       -0.99498697831892       -0.48422948459059
