65
 energy: -118.572694971703 gnorm: 0.000914895086 xtb: 6.5.1 (b24c23e)
Si          -0.53656472989869       -1.52479920633532       -0.38108075708088
O            1.06320714805081       -1.48150995774508       -0.08253898457301
C            1.96944019312211       -2.49479396218838        0.27237788018038
C            3.00438108294548       -1.95426136877178        1.23136488848454
H            1.41917098347117       -3.31366241431366        0.75657096412708
C            2.98319673625812       -0.63226820632426        1.65266164802269
C            4.01022941665274       -2.79034854449015        1.70735599829168
C            3.96792029080178       -0.13994735305194        2.49223739460198
H            2.18206129051407        0.01411679572556        1.32930835017551
C            4.99096100570920       -2.30134056068756        2.54984092042527
H            4.01818155605670       -3.83389640128454        1.42780609700060
C            4.98208201240821       -0.97008860262098        2.93433331130369
H            3.93928361857540        0.89600445950670        2.79875087422341
H            5.76567720096913       -2.96250828591605        2.90993109454013
H            5.75439888427766       -0.58754089500010        3.58508271942247
C            2.63451296454387       -3.03192838732507       -1.01340893030010
C            1.67360773654647       -3.75888809621414       -1.81491306187548
H            3.46611109377110       -3.68902058025548       -0.75183665958603
H            3.01763248762327       -2.18592849792049       -1.59037458753801
C            0.84510197862109       -4.34725671858260       -2.44612069342064
H            0.12123522005210       -4.85413815018411       -3.01037192460285
Cl          -1.56714210678121       -2.08257126347313       -2.04844866764032
Cl          -1.00885345421157       -3.21669007913227        0.79739890732974
O           -1.34921422728503       -0.53635664716104        0.77487242675895
O           -0.27502880206865        0.07994185344085       -1.37001935559723
C           -1.52492848707767        1.79827297720665        0.33670185484192
C           -0.15018521841414        1.94181196835237        0.03338904245114
C            1.76988507058817        1.10780559666671       -1.07999681901988
C           -3.43941141977539        0.38358239876992        0.45603070354446
C           -4.32748206250186        1.43297742733572        0.47738572929621
C           -2.39829775501039        2.89772835315677        0.48238107661808
C           -3.74771411494616        2.73229504320965        0.55196588855348
C            0.64154902292429        3.01559369571161        0.49404408342637
C            1.97207743044190        3.08898450522276        0.20828358539169
C            2.59849187975199        2.09843994385308       -0.58813040208469
H           -1.97094304188668        3.88680698504109        0.46419911356555
H           -4.40071025189853        3.58703690503690        0.61127007690138
H            0.17803960362143        3.74788046769421        1.13408011192214
H            2.57445928267523        3.88603007067840        0.61250012251090
N           -2.10294377670608        0.54448877783499        0.45343554157989
N            0.46343968332934        1.02778153267321       -0.79740482275474
C            4.03774059636478        2.11904691652507       -0.85580894559324
C            4.69336582839751        3.33043431368261       -1.07857910191517
C            4.78155220963289        0.93878421321834       -0.85644466307278
C            6.05650905233320        3.35783004598800       -1.30054503035531
H            4.12643798261155        4.24949084858458       -1.10320815671311
C            6.14560123300818        0.97420164737423       -1.07180338043236
H            4.29727606097101       -0.00389564500155       -0.65614306945455
C            6.78776093324142        2.18098791341217       -1.29565473151241
H            6.55105076223481        4.30116115563531       -1.47932849143215
H            6.71027727939939        0.05414036125016       -1.05989887893654
H            7.85358452443252        2.20530762943265       -1.46539825032840
C           -5.77712306527230        1.22988959245164        0.44954312907865
C           -6.61400555939480        2.04958598758249        1.20800377406277
C           -6.34631317976352        0.22932768110696       -0.33908785506070
C           -7.98313520064238        1.86835055416505        1.18141980301277
H           -6.18675002345782        2.81172661067025        1.84267520365514
C           -7.71696590169291        0.05609994315907       -0.36304525401282
H           -5.71752939429357       -0.40239076588769       -0.94696513080095
C           -8.53972583989370        0.87230926498801        0.39563412678901
H           -8.61885681413435        2.50424000067618        1.77960143507451
H           -8.14469565908893       -0.72022036731146       -0.97912248633070
H           -9.60998530101846        0.73244606536192        0.37655785246591
F           -3.83508386784686       -0.87835563354059        0.51930740425775
F            2.20916491805453        0.20214408836675       -1.94157904185298
