65
 energy: -118.571607635404 gnorm: 0.000822267022 xtb: 6.5.1 (b24c23e)
Si           0.37580343094005        1.25039723547405       -0.77151077090437
O           -0.53888292824726        1.85606283786712        0.40727031921486
C           -1.50817087635033        2.87491717928821        0.41954231188842
C           -2.75225693182334        2.35840296151106        1.09710744543884
H           -1.73844327174749        3.17525208135502       -0.61013697825410
C           -2.65602409222762        1.39684544367720        2.09466046025955
C           -4.00178838704159        2.85071715891419        0.74442075014878
C           -3.79428951756648        0.93508871676305        2.73224113259716
H           -1.68232556156385        1.00907594607749        2.35403736205009
C           -5.13862477421621        2.39327239595373        1.38738116097293
H           -4.08122231260297        3.58954446424276       -0.03955838607458
C           -5.03762269448974        1.43638694004898        2.38374007279087
H           -3.71214376211569        0.18203737891100        3.50310578540714
H           -6.10674597796178        2.78172364033924        1.10677260028428
H           -5.92491685077952        1.07700197341591        2.88446167578327
C           -0.94425149551206        4.08969358031683        1.18233090448877
C            0.19125693201121        4.63948738287716        0.47339076082436
H           -0.63310832328081        3.76379482456158        2.17838904821588
H           -1.72742727645030        4.84573969562447        1.27973541219942
C            1.13625819938936        5.03708447857309       -0.14320183173756
H            1.96130042443003        5.40222382208611       -0.67753510080805
Cl          -0.40293321741836        2.30445740385915       -2.44635691751146
Cl           2.33261812515656        1.67007136125605       -1.27533445894383
O            0.98729759392915        0.16007014169452        0.65320299543441
O           -0.17294223285193       -0.20846845898043       -1.50653635605632
C            1.49447466082821       -2.00509777949476       -0.07758640282436
C            0.12010647399456       -2.24392850444059       -0.31819440396631
C           -2.03949892734039       -1.31948162951124       -0.72553683755407
C            3.18802257162033       -0.51130797694257        0.65008396111685
C            4.20635213065086       -1.42052020557868        0.43598875938933
C            2.49364463538538       -2.98890818555310       -0.22976520776121
C            3.80859847198982       -2.70414203624335       -0.00918247674399
C           -0.51712257486746       -3.47350292061575       -0.04568370557244
C           -1.87398769479250       -3.58887602059816       -0.05980680258989
C           -2.70151886578211       -2.46310022651987       -0.34642903940732
H            2.19572923123788       -3.95969529201961       -0.59005269496623
H            4.56631460919777       -3.44931025422489       -0.18853667005056
H            0.09906891844020       -4.30806569789192        0.24642349391480
H           -2.34484908096372       -4.52239460922109        0.19977148509315
N            1.89913744686502       -0.77232299003100        0.39017628570854
N           -0.69936341831182       -1.23015683894012       -0.78510380031734
C           -4.16192862269217       -2.52894351484451       -0.27358420363654
C           -4.83328794797403       -3.69038137786415       -0.65941842425243
C           -4.90608981132720       -1.44026721028906        0.18268778614816
C           -6.21150309921680       -3.75656307907222       -0.59477591737159
H           -4.27426435674188       -4.53249007317969       -1.03960726805096
C           -6.28409309021452       -1.51501875877658        0.24742565492496
H           -4.40815163891097       -0.53962446962739        0.50538835505403
C           -6.94237650486013       -2.67016696268669       -0.14110331475811
H           -6.71883251934342       -4.65811628324090       -0.90510642439301
H           -6.84399514072839       -0.66367967228265        0.60405005221382
H           -8.01952893314394       -2.72460886958594       -0.09287386024445
C            5.61080239760015       -1.06837226312788        0.65004104449504
C            6.50236532407247       -1.99987254362780        1.18240693905803
C            6.08222420786118        0.19542685791784        0.29174751809421
C            7.83291908038892       -1.67184912165732        1.35810064844475
H            6.14467511567481       -2.97382822953039        1.48292419162317
C            7.41532901509534        0.51384081123463        0.46683207894234
H            5.40733530428556        0.91548396419746       -0.14485433344083
C            8.29390298563361       -0.41529490059065        1.00016782637975
H            8.51300846997988       -2.39839210304453        1.77784178335627
H            7.77128654544659        1.49215245849511        0.18144953380358
H            9.33465244007480       -0.16226497119318        1.13627398648506
F            3.40963832135792        0.65059579569428        1.24367240181148
F           -2.67678635208082       -0.23456690119973       -1.14424539585969
