65
 energy: -118.570500068845 gnorm: 0.000777759521 xtb: 6.5.1 (b24c23e)
Si          -0.49922283149980        0.91038231150683        0.61111034798652
O           -0.14588797934580        1.86335753407992       -0.64258815351912
C           -0.02714908301471        3.26743656860489       -0.68542694278947
C           -1.33582593747984        3.93687111252703       -0.35319109579414
H            0.73972427426937        3.58071300173683        0.03409504695329
C           -2.52669436842030        3.37950248372379       -0.79869857656090
C           -1.36558132324854        5.10669704499118        0.39193612975468
C           -3.73475678782588        3.98043821167324       -0.49523908214863
H           -2.50192431155050        2.46030197708613       -1.36524612137347
C           -2.57435710478068        5.71094438181761        0.68815465055137
H           -0.44151254163614        5.53374599460539        0.75291770338664
C           -3.76030255989245        5.14916547152638        0.24621789360492
H           -4.65669927291031        3.53268504824518       -0.83595977025027
H           -2.59101271254587        6.61754943710204        1.27501702765431
H           -4.70347079526613        5.61813901568782        0.48594722663447
C            0.40878892808333        3.64413638535301       -2.11261486670630
C            1.68519293016950        3.05907549179879       -2.46092443589158
H            0.46875987045431        4.73322088040486       -2.18568105369708
H           -0.34988091578607        3.28144582320532       -2.81092612161212
C            2.73294711474695        2.56203390931591       -2.75586342432908
H            3.65010413750900        2.13512489155650       -3.03479531230897
Cl          -2.35731575924054        0.36087197521711        1.35399578697285
Cl          -0.14943524407461        2.28299000523690        2.20460609747319
O           -0.65594022559034       -0.36777595072234       -0.74801462054868
O            0.73511058719959       -0.07966673731675        1.28161697519799
C           -0.06354006563214       -2.50378345068519        0.00948640104896
C            1.28461294098612       -2.09103550886328        0.13410224306034
C            2.84162983521831       -0.30143798170196        0.38090875729189
C           -2.30095277298245       -1.96114387459223       -0.56580849418848
C           -2.77790185348647       -3.22394219857837       -0.27548312129968
C           -0.49581587193426       -3.82700260099921        0.24113035915556
C           -1.80944196574021       -4.17416661953018        0.12953800949103
C            2.37905170528846       -2.92165271144270       -0.19132937824955
C            3.64488948915146       -2.42952337744894       -0.28219400497924
C            3.91422943595665       -1.04835199810703       -0.04749784131280
H            0.23403167208239       -4.54581462534134        0.57498557071916
H           -2.13273239251236       -5.17432474853591        0.36794962697791
H            2.17532392992554       -3.95034440478979       -0.43943322138299
H            4.45623385888503       -3.07008424079836       -0.58505424897993
N           -1.01655689092112       -1.60617517539506       -0.41962352995893
N            1.60329281024961       -0.80354447754040        0.53069530973275
C            5.24896186353797       -0.47598652816462       -0.22737649741190
C            6.38490567530645       -1.23942613726519        0.04905280095408
C            5.41574399036027        0.83209822783103       -0.68615855156332
C            7.64784138223368       -0.70984436990792       -0.13152374709690
H            6.27770575635077       -2.24187403820737        0.43551736188689
C            6.68195262995335        1.35409693274201       -0.86800472986832
H            4.55250830585962        1.43868486183229       -0.91044293833977
C            7.80233002665005        0.58691170923174       -0.59400394618800
H            8.51663088118406       -1.31055018107650        0.09371721233085
H            6.79479648258947        2.36667777701947       -1.22596469562383
H            8.79035734086404        0.99809468749183       -0.73586679596168
C           -4.20177740013358       -3.54982915209665       -0.37127934730321
C           -4.61383482087264       -4.79295744468363       -0.85098035565588
C           -5.16333689647763       -2.62907088171390        0.04703255245809
C           -5.95827999439814       -5.10456345823683       -0.91734322210425
H           -3.87842670535571       -5.50488879522170       -1.19624533287221
C           -6.50558674045473       -2.95088709429070       -0.01754636687628
H           -4.85378175980724       -1.67442486097859        0.44405935198350
C           -6.90773947818602       -4.18591259359028       -0.49995647488202
H           -6.26717309697102       -6.06700858588211       -1.29786808428085
H           -7.24193893361124       -2.23471558896179        0.31453332600670
H           -7.95756165218199       -4.43310770313291       -0.55012574030056
F           -3.06857000227362       -1.03914482568388       -1.12549907405578
F            2.96096219296483        0.96227076832347        0.76188154900225
