71
 energy: -124.910686653167 gnorm: 0.000909216534 xtb: 6.5.1 (b24c23e)
Si           0.41008945468814        1.79518428690388       -0.05772333206874
O           -1.19154877116826        1.65670546736907        0.16859056029416
C           -2.10734071239678        2.28502987166522        1.04213740162247
C           -2.83033937615351        1.15841802625835        1.74878224336143
H           -1.54448161605959        2.87802720018638        1.77590446218857
C           -2.04674467870533        0.25581673121555        2.46303751977318
C           -4.19772536044816        0.93882521575317        1.66911024638975
C           -2.61428105905201       -0.84959906767203        3.06564069543983
H           -0.98330150154032        0.43128532029768        2.53710579644843
C           -4.76596975357615       -0.17260708192277        2.27087913405718
H           -4.83711224697682        1.62942127559726        1.14233621124474
C           -3.97776505311647       -1.07313270375879        2.96248079064501
H           -1.99271868942939       -1.53490339733022        3.62379885263668
H           -5.83074371516846       -0.33564769970385        2.19097807300692
H           -4.42420038519970       -1.94044364092100        3.42660408611744
C           -2.99895853279156        3.22945847939565        0.22745180296452
C           -2.18672824390154        4.26748197632362       -0.37488241972850
H           -3.74380929485372        3.68290566696922        0.88577320357984
H           -3.49806599996862        2.66879724352444       -0.56769184300126
C           -1.47819047234631        5.09066648639333       -0.87455926010051
H           -0.85879067953372        5.81731816748723       -1.30733262891737
Cl           1.32673742184934        2.73951829923799       -1.60387369631200
Cl           0.82041057125281        3.24096524780670        1.43694682568131
O            1.30069688141932        0.66115575701365        0.90150318054279
O            0.20736078251496        0.36544240734082       -1.30692638240634
C            1.52961202200805       -1.53671864711767        0.03035678580814
C            0.10379341754333       -1.62018720399740       -0.07726271292137
C           -1.83138993721349       -0.67805523134705       -1.08826857282184
C            3.39497456063352       -0.04898374053455        0.24148309838556
C            4.30966524633571       -1.01451546493756       -0.09950047589551
C            2.43173767269391       -2.56936734681493       -0.30491194744397
C            3.77923659061675       -2.30895951692256       -0.34672931736762
C           -0.71955391664743       -2.58599531920044        0.53965494892438
C           -2.06970237466367       -2.57710183040059        0.29716921504796
C           -2.67764643862641       -1.64115388279369       -0.57294569587465
H            4.45971470447393       -3.08609550027813       -0.65527675164052
H           -2.70114675358377       -3.27769044032323        0.81894487520372
N            2.08056793148349       -0.30688338847469        0.35784105012205
N           -0.51784760039074       -0.65138981380367       -0.83907314638264
C           -4.11203575777898       -1.69156370477169       -0.85592206013849
C           -4.77698966899051       -2.92029108510036       -0.85415627285222
C           -4.85453497052131       -0.53737394578285       -1.10945527855363
C           -6.13671598794010       -2.98849779602730       -1.08517425702408
H           -4.21993196006550       -3.83183080885408       -0.69735992205536
C           -6.21507040771040       -0.61051908671190       -1.33602202855572
H           -4.37086198265965        0.42450558123659       -1.11279852140541
C           -6.86432787068903       -1.83367153138065       -1.32142003629587
H           -6.63180815306728       -3.94851366504203       -1.08458019919284
H           -6.77363474203330        0.29445598496322       -1.52404524734551
H           -7.92800110058598       -1.88792053568611       -1.49801914980423
C            5.74168536262969       -0.73342305825879       -0.22350827246358
C            6.67543583275616       -1.67824942098346        0.20317862812088
C            6.19634895767323        0.46331088421819       -0.77743625955814
C            8.02878970135069       -1.42828976198335        0.08479639264568
H            6.33669147135173       -2.59946314370928        0.65396952795822
C            7.55175741601145        0.70438794726317       -0.89707834179042
H            5.48976405477634        1.19770690468945       -1.13122754304073
C            8.47189317049412       -0.23717054973144       -0.46667544811691
H            8.74126147728649       -2.16442119975741        0.42680649389570
H            7.89097471114786        1.63281228755518       -1.33093571357127
H            9.52999673139493       -0.04409910564236       -0.55953302045681
F            3.74302812425010        1.19056954068457        0.55304098332814
F           -2.24554264732814        0.25857405434087       -1.93005661078232
C            1.94107926029498       -3.91721956089360       -0.73884208133464
H            2.01556975373241       -4.63423781255629        0.07675684793727
H            0.90919487790804       -3.87223813961875       -1.07262227195356
H            2.55887797509507       -4.28238570489412       -1.55576114098641
C           -0.16058305890878       -3.53593304216110        1.55553892411966
H           -0.80073510390527       -3.53461501621885        2.43514917512761
H           -0.13863571072901       -4.55331279054346        1.16954090519858
H            0.84272015075725       -3.24733792712179        1.85266292233810
