71
 energy: -124.908137102204 gnorm: 0.000902442413 xtb: 6.5.1 (b24c23e)
Si          -0.29356797863317        1.38557460489235        0.77830864862626
O            0.79156206426287        1.77423703231044       -0.35257828507918
C            1.76094786486188        2.78728167079465       -0.42964961646853
C            2.99531850078403        2.22863633617161       -1.09189934618869
H            1.99863985069542        3.14353434152924        0.58094331196770
C            2.88981914550815        1.18937401020739       -2.00742138648229
C            4.24552683906036        2.76663068158947       -0.81482778715210
C            4.01883066662358        0.69407533423107       -2.63603983795741
H            1.91599163591930        0.77030755092881       -2.21152365315946
C            5.37218495553670        2.27662847897439       -1.45165487460122
H            4.33255479390440        3.56779470259111       -0.09524397172510
C            5.26168091416586        1.24007772120862       -2.36386281406354
H            3.92870533168460       -0.11936073493690       -3.34140017541718
H            6.34015112389615        2.70304583618343       -1.23201260710682
H            6.14200029920872        0.85475010783853       -2.85686279178584
C            1.20405074902537        3.96084020669202       -1.26077032183759
C            0.07150202375198        4.56376784894851       -0.59217664387376
H            0.88998862400595        3.57659341072205       -2.23503894511561
H            1.99368421870147        4.70252654999513       -1.40487647609999
C           -0.86736302374006        5.01913518952760       -0.00727078235877
H           -1.69394677067423        5.42336862590825        0.49569597395820
Cl           0.51730438729533        2.48528556596325        2.41568145111657
Cl          -2.22516995681734        1.96811357853144        1.21773185846193
O           -0.95140696763833        0.32935184805369       -0.65128861458156
O            0.04531468099759       -0.10184188942500        1.59281717039284
C           -1.55492638945514       -1.78164334798062        0.15681526127581
C           -0.15069892727913       -2.05039451483063        0.26604185356075
C            1.97964911450993       -1.13035360701880        0.85868061951073
C           -3.18640486994727       -0.21619530958552       -0.58635743155643
C           -4.24309738159796       -1.03919047455321       -0.25491081751039
C           -2.59644949624059       -2.65364790981263        0.53655728288750
C           -3.90233864043480       -2.27309409567421        0.34278726911033
C            0.52154524849988       -3.14355600699216       -0.32019999105856
C            1.89298371634349       -3.19631193132104       -0.28856771244854
C            2.68320722301731       -2.17026269295375        0.30002912178890
H           -4.69871865297790       -2.91459017443521        0.68546171770477
H            2.39998195038012       -4.00428432941891       -0.79054389494632
N           -1.90967986602178       -0.55031179250970       -0.36064257063584
N            0.63782284312572       -1.09466779927482        0.88644380430124
C            4.14565949481224       -2.22678514899107        0.29279917344684
C            4.79410332421540       -3.46008206550837        0.39041108235847
C            4.91919023130701       -1.07070350195184        0.18136402686949
C            6.17304210917125       -3.53282079898447        0.37390514818023
H            4.21410379055434       -4.36325853112599        0.50878059968599
C            6.29817125491783       -1.15156609464956        0.16039392769497
H            4.44686680849058       -0.10680647792310        0.09002548613000
C            6.93156477970997       -2.37943540929581        0.25525042863822
H            6.65913120458182       -4.49376232770700        0.45773716354286
H            6.87889425187831       -0.24647775940515        0.06690563690593
H            8.00946255012981       -2.43877544169149        0.24035780434143
C           -5.63454067277244       -0.63725544557513       -0.46894323038587
C           -6.58424949094246       -1.57470059644522       -0.87472142058072
C           -6.03403721202628        0.68040415654791       -0.24329076236730
C           -7.90094649531916       -1.19984768034351       -1.06095354099465
H           -6.28191812455061       -2.59373391065629       -1.06787608444953
C           -7.35363015238339        1.04623277691376       -0.42799599497679
H           -5.31408213118288        1.40751957404746        0.09906429332755
C           -8.28986449808929        0.11113238185740       -0.83873514894951
H           -8.62652551897874       -1.93235664589061       -1.38300302172817
H           -7.65389359860324        2.06722197608976       -0.24674959433722
H           -9.31953275194589        0.40176388030860       -0.98413778771986
F           -3.35680552900574        0.91500160387310       -1.25458944858185
F            2.56699752048126       -0.11816214328948        1.48121221954010
C           -0.22792736698197       -4.19114389336070       -1.08667090492864
H           -0.34058606615661       -5.09535543079157       -0.49127634028074
H           -1.21234065593211       -3.83824492303566       -1.37697875293445
H            0.32942202645800       -4.45435908414356       -1.98253957210026
C           -2.30231668886746       -3.93149658529872        1.26288282513379
H           -2.94661877421438       -4.00356145760891        2.13660606104451
H           -2.50786365517860       -4.79422427851204        0.63181464931996
H           -1.26791080788569       -3.96837934051604        1.58916608370588
