71
 energy: -124.899261094317 gnorm: 0.000316044360 xtb: 6.5.1 (b24c23e)
Si           0.07248075947616        1.30710387257076        0.68555532480107
O           -1.01670936562866        2.38374951494018        0.09524129289077
C           -2.41793856159209        2.37403079534559        0.03838963600856
C           -2.89610515135820        3.69967556236515       -0.50316549949245
H           -2.72949915058115        1.56765576201784       -0.63723861486477
C           -2.23285278236407        4.87189931918576       -0.16899662921757
C           -4.02818848826324        3.76173895700722       -1.30454240961430
C           -2.69289389291304        6.09020533081802       -0.63584805603942
H           -1.34827939323436        4.81537498763134        0.44653384192360
C           -4.49121117992865        4.98123271491909       -1.76540992776956
H           -4.54575113695019        2.85003077019555       -1.56926342431816
C           -3.82412330836791        6.14795215878119       -1.43202209263954
H           -2.16807889133525        6.99781255197829       -0.37574211187217
H           -5.37254159533518        5.02083605649753       -2.38930559028200
H           -4.18445515972157        7.09948315485005       -1.79502884160336
C           -3.07809460263807        2.15340064255413        1.41878578530848
C           -2.90528683600005        0.81296535721432        1.93012073709777
H           -4.14645375127167        2.36510266734143        1.32009411255478
H           -2.63720074950006        2.85891552818751        2.12730359709672
C           -2.75833847960515       -0.29891037046281        2.35136316888811
H           -2.62725920890579       -1.25948216198153        2.75365735235537
Cl           1.60155385214520        2.10226605858001       -0.43210096733557
Cl          -0.07740795502414        1.84130275467873        2.67966167685122
O            1.17136990152184       -0.01859299870291        1.43124144042648
O           -0.55368582277417        0.03720371718375       -0.36431434184547
C            1.67129720094061       -1.69276400499389       -0.12048059500266
C            0.32511386085777       -2.16527723588799        0.01989559737476
C           -2.01180198415325       -1.71853924178987       -0.16220247126169
C            3.30864706672454       -0.12604235118477        0.60452166403096
C            4.29063372638264       -0.65205814073876       -0.20934022083141
C            2.63178642092810       -2.26375140565228       -0.98471847860102
C            3.90090067983176       -1.73877212421327       -1.02197481360463
C            0.00186228203844       -3.51368878881155        0.30370565352148
C           -1.30699726435932       -3.91674124179036        0.34704234438614
C           -2.37583048538550       -3.02295927980890        0.05887169303143
H            4.61600174401311       -2.13339130229675       -1.72649360851045
H           -1.54565802284118       -4.92937732660416        0.62889918490828
N            2.06452591963519       -0.61841349021930        0.64101882010314
N           -0.73746638862014       -1.28047936834215       -0.12030645020965
C           -3.76761101758487       -3.47313809574484        0.01709221724137
C           -4.07249310438050       -4.73958206030524       -0.48517385765233
C           -4.80563425319687       -2.66822811265866        0.48945526793397
C           -5.37948667695769       -5.18434175843855       -0.52056018222193
H           -3.28205143942926       -5.36506595067103       -0.87319187007993
C           -6.11026431482089       -3.12189770283816        0.45439462191335
H           -4.59003949733248       -1.69465570845461        0.90299535436576
C           -6.40350798852381       -4.37807150464882       -0.05052833653967
H           -5.60137060568096       -6.16322745698218       -0.91943702544185
H           -6.90289310289059       -2.49076509768550        0.82749532266092
H           -7.42453934286986       -4.72753095521144       -0.07800440480842
C            5.64117267671397       -0.08985261148786       -0.26293177747359
C            6.74659236648192       -0.93000254064232       -0.39521911684027
C            5.83796261920745        1.29012613677536       -0.20952214610594
C            8.02135145456987       -0.40162975223219       -0.46222972969794
H            6.60544154498443       -2.00081183527001       -0.42014430670586
C            7.11609366171213        1.81054310984285       -0.28128946061814
H            4.98697832708985        1.94939277923909       -0.13778489307290
C            8.21019861220975        0.96962288206695       -0.40534353643753
H            8.87110561045374       -1.06161027952145       -0.55695121838918
H            7.25871326908079        2.87989335033036       -0.24338815267536
H            9.20727236609395        1.38044704335489       -0.45875901245987
F            3.55468819171023        0.83215445919437        1.48290374925812
F           -2.89475770789542       -0.79918404344574       -0.53894562354028
C            1.06956257726356       -4.49603712330608        0.68522563567428
H            1.18942737687303       -5.25550797154135       -0.08477762879350
H            2.02383157484381       -4.00733830989799        0.85163201950232
H            0.77465275686203       -5.00369327311983        1.60157501617568
C            2.26076180200837       -3.33990154150461       -1.96010386665466
H            2.63934410451159       -3.07539214888052       -2.94524220650555
H            2.71251019504311       -4.28948666340073       -1.67934834025315
H            1.18477215800515       -3.46676566428183       -2.02302229040066
