71
 energy: -124.907060993230 gnorm: 0.000390180964 xtb: 6.5.1 (b24c23e)
Si          -0.08652672605454        1.14719601199393        0.58560783610564
O            0.80997306655792        1.70497527867382       -0.63688439815517
C            1.72474237611749        2.77565547130654       -0.67350429302251
C            1.04706213633990        4.10148983615752       -0.44573581136987
H            2.48730330992508        2.61664641139258        0.09978232790041
C           -0.23717123970766        4.31480579815341       -0.92642889704290
C            1.70105426147114        5.12015982213246        0.23232736686806
C           -0.86584492413270        5.52941253751921       -0.72002373590618
H           -0.74787539781880        3.51632548944958       -1.44418405155200
C            1.07433382982320        6.33699512021234        0.43081570881349
H            2.69566700125816        4.95188081496499        0.61866135911066
C           -0.21024506478995        6.54325189190932       -0.04312300042794
H           -1.87031395776390        5.68223739718564       -1.08638511884812
H            1.58606872855129        7.12288445672153        0.96665299960552
H           -0.70201547489830        7.49086405437367        0.12131618518178
C            2.38057123316117        2.74969333639661       -2.06709983726958
C            2.99729573468641        1.46816412216136       -2.33195661937516
H            3.12693379419215        3.54579800286524       -2.12487066772054
H            1.60600649716758        2.93087413728466       -2.81658986122296
C            3.47780804960905        0.39158088862889       -2.53856728217423
H            3.91262702636819       -0.54245748840346       -2.73672490728141
Cl          -2.01898427657669        1.58239902693028        1.18333358146959
Cl           0.76589573031677        2.30185325215837        2.17274709206258
O           -0.75190857756553        0.04796439194385       -0.78777705747924
O            0.44584396433764       -0.29753809135059        1.36721442756039
C           -1.14137408205333       -2.10099206295739        0.05739133988705
C            0.28091458359609       -2.27522509581174        0.07625863800187
C            2.38733230367932       -1.24152581820478        0.55415697189168
C           -2.92918403085473       -0.66420085751917       -0.57715905709746
C           -3.89819992192802       -1.56081777989927       -0.17771316705794
C           -2.08949918391875       -3.04292216284052        0.51088895356639
C           -3.42939511884248       -2.76129075353430        0.40107585162923
C            0.98037837672464       -3.34370896598346       -0.52499926900419
C            2.35269484423005       -3.33616580371780       -0.54194637731505
C            3.11694855047149       -2.26737560541949        0.00348778434015
H           -4.15267477212489       -3.45514060544090        0.79937003177728
H            2.87688021352661       -4.13076297062153       -1.04809583834175
N           -1.61864162981688       -0.90247377345576       -0.43713640320395
N            1.04735278888299       -1.26582570882580        0.63455418547596
C            4.58074996167522       -2.27693602463763       -0.02637041579085
C            5.26532877988413       -3.48757717252464        0.10403963472413
C            5.32002082726852       -1.10316300043722       -0.18373081588150
C            6.64567944282620       -3.52194070515904        0.07667210238466
H            4.71181422806846       -4.40223198950984        0.25641037391155
C            6.70090304653339       -1.14607499266869       -0.21461840485090
H            4.81636470113290       -0.15769047741012       -0.30853156549318
C            7.36986671095763       -2.35192484520987       -0.08495053734074
H            7.15960324175105       -4.46562133591980        0.18587690748498
H            7.25734307875711       -0.22986326959286       -0.34335978165454
H            8.44880685968693       -2.38045110989801       -0.10762715906010
C           -5.32761144998804       -1.26677625589501       -0.29747722585996
C           -6.22593776126149       -2.27566979056287       -0.64458760611657
C           -5.81262444617109        0.01462063338544       -0.03498947582958
C           -7.57789935844122       -2.00623709001836       -0.73604289968203
H           -5.85758784497602       -3.26685020391975       -0.86612392850810
C           -7.16693794018632        0.27461826468899       -0.12379393659196
H           -5.12977391097689        0.79556162400919        0.26200022747119
C           -8.05269802950876       -0.73105593229159       -0.47544825864733
H           -8.26401600208741       -2.79316616661408       -1.01305713924298
H           -7.53378199534824        1.26779610394907        0.08713217269207
H           -9.10997078445811       -0.52324413724513       -0.54495213957054
F           -3.22609123415447        0.45104823349010       -1.22797808972069
F            2.94956832712711       -0.18302406899607        1.12043971104080
C           -1.65734825092192       -4.28537856616126        1.22966307319989
H           -1.84044060671268       -5.17040239731350        0.62316583644437
H           -0.60429191835708       -4.24373309264439        1.48870685437437
H           -2.23743648705283       -4.38922245242413        2.14431729249791
C            0.25211903624604       -4.43369927943550       -1.25181141273736
H            0.77559284993588       -4.66461692737520       -2.17670886389601
H            0.22339177883579       -5.34297970487274       -0.65419766981459
H           -0.76457187223032       -4.13784987731489       -1.48974385031605
