71
 energy: -124.910409044933 gnorm: 0.000292339039 xtb: 6.5.1 (b24c23e)
Si           0.11218646458247       -1.45900220540751       -0.07281774552438
O            1.62355779950605       -1.10075500108157        0.40855337500657
C            2.53295767188995       -1.92339616366527        1.10449400905555
C            2.91189845436537       -3.12835804219574        0.28421816703277
H            2.06771526288319       -2.24472016634386        2.04350302261157
C            3.11624039973070       -2.99158763957547       -1.08203382279014
C            3.06029222378428       -4.37336575782475        0.87727710205162
C            3.45621001900914       -4.09075628988814       -1.84922590460645
H            2.98677842892698       -2.02388426746987       -1.54389074700265
C            3.40819171700760       -5.47032093020858        0.10960171703893
H            2.88581813421037       -4.48403947215105        1.93725371264792
C            3.60529002170891       -5.33147021309006       -1.25387250132171
H            3.60139036373597       -3.97776475645351       -2.91340290783517
H            3.51526486215144       -6.43861581381264        0.57588624727709
H            3.86801713639976       -6.19104282604298       -1.85295729831129
C            3.78393306690489       -1.08034306840330        1.40844480179320
C            3.43017873449944        0.13379204883125        2.11016938445393
H            4.27258894445534       -0.83195550791681        0.46211699700111
H            4.47233328214517       -1.67623486062733        2.01250679140426
C            3.09014063695065        1.14569897323923        2.65086015387851
H            2.81915436907621        2.02644908214044        3.15118948336279
Cl          -0.47896033063316       -2.38823868460699       -1.79802250878016
Cl          -0.21995610367546       -3.12897656953749        1.20150374749911
O           -1.04609385758655       -0.55632798103069        0.84183914005788
O            0.22441735622621        0.05231601709406       -1.19834127805033
C           -1.74102016075215        1.50138055628033       -0.11494513933974
C           -0.39227988931263        1.97205000285503       -0.02335808747604
C            1.86280304128967        1.59422585481553       -0.67728140212297
C           -3.18716224361768       -0.40317590260210       -0.00221245972418
C           -4.27271654906181        0.28537741648157       -0.48507402425564
C           -2.82425795325666        2.25086532239694       -0.62550000450472
C           -4.05032236944774        1.65546698351716       -0.78579865723224
C            0.01737630190844        3.16169176009074        0.61811845954554
C            1.32959344063020        3.55277152861317        0.53796397090118
C            2.30248164730428        2.79499669653974       -0.15582419191143
H           -4.85917490275291        2.21738307235625       -1.22430592666318
H            1.64827235750388        4.44435447945580        1.05482216824583
N           -1.99560112200995        0.17998065274826        0.21692344789384
N            0.58581361903861        1.20106833210285       -0.61998688365730
C            3.67820563202118        3.27788671221550       -0.28824859251494
C            3.91237812927383        4.64443745975042       -0.45710836162274
C            4.77148034954228        2.41420783672245       -0.23762428610473
C            5.20075178796927        5.12904056355146       -0.56957273396071
H            3.07726153809398        5.32598484771147       -0.52678968849189
C            6.05833256107792        2.90497322120518       -0.34566439255465
H            4.61384162485095        1.36053014436692       -0.08491112815002
C            6.27974528577920        4.26207892188234       -0.51131796267714
H            5.36447979463692        6.18796117650085       -0.70575720233631
H            6.89426505107363        2.22339164348540       -0.29615619506043
H            7.28650363053024        4.64258694435281       -0.59550496976137
C           -5.57746168728150       -0.34581993429976       -0.69483855945582
C           -6.74361744091297        0.36766280514241       -0.41437937419071
C           -5.68325532765508       -1.64942769414983       -1.17976489000347
C           -7.98276052946468       -0.21146668455878       -0.60645040256832
H           -6.67468478066219        1.36999006681277       -0.01779859130109
C           -6.92665656641487       -2.22088093113169       -1.37296274752243
H           -4.79410360729181       -2.20980658837511       -1.42264406861357
C           -8.07894864524639       -1.50741388571879       -1.08669375942716
H           -8.87723270526300        0.34874985696243       -0.37685854808794
H           -6.99563456459812       -3.22965193907796       -1.75100754632372
H           -9.04826907421533       -1.95873049537206       -1.23599801495466
F           -3.25010341469074       -1.67649779368634        0.35455629929849
F            2.66276375925803        0.78244122661685       -1.35533650929656
C           -2.63439117613887        3.65399120267061       -1.11790132871334
H           -3.02171087356622        4.37197461189039       -0.39747713386477
H           -1.58690616949746        3.87078659906472       -1.30101984237327
H           -3.18699009028696        3.78798344084632       -2.04493027476535
C           -0.93146975079324        3.93885177904351        1.48046101695117
H           -0.47045779561705        4.11326001101366        2.45085204900858
H           -1.15061817143983        4.91129500149816        1.04375034412816
H           -1.86010504877443        3.39807121344507        1.63103698764034
