71
 energy: -124.907024814646 gnorm: 0.000482490852 xtb: 6.5.1 (b24c23e)
Si          -0.64163434500414        0.99474886062264        0.58396331501639
O           -0.15172169233771        1.96282381032736       -0.61207683207823
C            0.04307018855328        3.35864328795484       -0.61251708358985
C           -1.23756995282341        4.09293933110649       -0.31170350131461
H            0.79788673058830        3.60944939268365        0.14375497828976
C           -2.44084000112193        3.60406269558747       -0.80178453254577
C           -1.23114691855896        5.25069172736191        0.45242023582292
C           -3.62654770372657        4.25653626856148       -0.51796335602932
H           -2.44445554279677        2.69596733773911       -1.38647066465082
C           -2.41704821761214        5.90745459153236        0.72805095737420
H           -0.29814811608617        5.62604543747060        0.84636322410347
C           -3.61628222061942        5.41048573125462        0.24654495014495
H           -4.55914018346696        3.85981302822638       -0.89119848169843
H           -2.40625234711046        6.80313943700406        1.33154194212315
H           -4.54252960507159        5.91793160024322        0.47324073128379
C            0.55776985429883        3.73688225870070       -2.01351631851032
C            1.74262701031760        2.98309671258713       -2.36178934408890
H            0.77280092660134        4.80805718522769       -2.03630156843629
H           -0.22676039014789        3.51478231237146       -2.74145928253731
C            2.70336917185302        2.32921628167319       -2.64799492868814
H            3.54983635669967        1.76935405677325       -2.91443461775177
Cl          -2.53992540671381        0.46104815844170        1.21752947500693
Cl          -0.36730133653721        2.33408587369411        2.22880424058054
O           -0.76220542147838       -0.22871671983368       -0.84147116771319
O            0.52352583953267       -0.06780035230051        1.28149380269480
C           -0.12498983889799       -2.35196675563496       -0.08386832959139
C            1.22430603897776       -1.86964735730271       -0.08630311614158
C            2.64541710017618        0.00164748575076        0.38017392345199
C           -2.38081855678888       -1.84866140627324       -0.65331597045610
C           -2.84009674745646       -3.09389168130009       -0.27776293172785
C           -0.54388886079003       -3.62972669825918        0.34485003043713
C           -1.87118174284693       -3.97245825089232        0.25672412193812
C            2.31310485186773       -2.49107341330971       -0.73525596561306
C            3.52954536730632       -1.85737706859801       -0.78298585056797
C            3.74087853370470       -0.56611848538876       -0.22447666998929
H           -2.19902676764210       -4.92623573153329        0.63880954237950
H            4.34032678487915       -2.31617108744956       -1.32556494584553
N           -1.09912265539584       -1.48046769135848       -0.53051275263246
N            1.46877232818344       -0.63531508901310        0.49302383549622
C            5.04409545832564        0.09694489087571       -0.29816011226574
C            6.21157009219997       -0.66725879789442       -0.23163599580732
C            5.15728095760331        1.48151437944895       -0.43653689123535
C            7.45225495684810       -0.06512583642110       -0.30470893403037
H            6.14492238116404       -1.73607344015773       -0.09269907449972
C            6.40229034680337        2.07635770779905       -0.51492675200289
H            4.27235940620370        2.09438532169266       -0.50584009833669
C            7.55356644759984        1.30895478646448       -0.45027454628538
H            8.34491230847931       -0.67022934789736       -0.24438886133004
H            6.47224487688614        3.14774279254842       -0.62910358514858
H            8.52405447483775        1.77805846967696       -0.51000857834036
C           -4.25287843739977       -3.46478931202915       -0.37649748387368
C           -4.61612364602020       -4.76374423889962       -0.73214298517597
C           -5.25252853023726       -2.53556016467898       -0.08665131377255
C           -5.94847171327658       -5.12172420956616       -0.80559414018263
H           -3.85041378414206       -5.48626579544032       -0.97448972369883
C           -6.58275082770007       -2.90244521054915       -0.15972004848771
H           -4.98345542475450       -1.53671476898581        0.21998457550994
C           -6.93587624620532       -4.19274450066455       -0.52025352297935
H           -6.21830579891011       -6.12868651569188       -1.08835241528242
H           -7.34873825371943       -2.17743413924519        0.07072750715259
H           -7.97652107782312       -4.47496437419632       -0.57710057087343
F           -3.15540277762227       -0.96398555869158       -1.26436738678819
F            2.68349055710116        1.18829938522047        0.96919723344061
C            0.41283080895951       -4.56782045061918        1.01698589722883
H            0.62846273778561       -5.42552033931951        0.38254826197665
H            1.34290000816341       -4.06784274470773        1.26739695137785
H           -0.03869047075577       -4.94308621791478        1.93302572752488
C            2.13816655802365       -3.78065698165524       -1.47879877707504
H            2.69170844998471       -3.73781245938256       -2.41390647346321
H            2.53204092878930       -4.61486981287895       -0.90109328932684
H            1.09239072030645       -3.96951459068074       -1.69912668789663
