71
 energy: -124.907104964869 gnorm: 0.000501581614 xtb: 6.5.1 (b24c23e)
Si          -0.18813402988350       -1.29092105821116       -1.36624720915691
O            0.88168566200898       -2.14498985164779       -0.52738917864796
C            1.09501633008551       -2.42591601187069        0.84092157350025
C            2.55937014918727       -2.24891312484661        1.14848273324002
H            0.49355005249819       -1.74304525230747        1.44473610818287
C            3.51815875561119       -2.78009687030407        0.29487969831284
C            2.96504559186740       -1.57403556797857        2.29208506914124
C            4.86333297677872       -2.65599902752284        0.59477510436753
H            3.20130894280409       -3.27445159144060       -0.61054494682103
C            4.31079757437347       -1.45147925046066        2.59150111146695
H            2.22164294629589       -1.14683306434903        2.95061127697184
C            5.26192098733435       -1.99959773176457        1.74782630362179
H            5.60185926655685       -3.07303185543744       -0.07376000850315
H            4.61766603231295       -0.92588118713940        3.48384549098247
H            6.31127279436606       -1.90688616673797        1.98593406547278
C            0.65585780223876       -3.87393204235740        1.12657221828815
C           -0.77616156905184       -4.00677543491061        0.96583754168599
H            0.94437848179111       -4.13654519962023        2.14814700196965
H            1.16794644601131       -4.54081704760813        0.42837719899440
C           -1.96097339884074       -4.06817855643205        0.81371491931276
H           -2.99960323644582       -4.12361560098259        0.68275701467500
Cl           0.52891347759333       -1.94761361960187       -3.19524479041740
Cl          -2.16566398351723       -1.64156770007315       -1.73673086233274
O           -0.80178822527217       -0.47341460176661        0.46539166507813
O            0.17062105276215        0.34791417686233       -1.70957870214774
C           -1.40304343737320        1.73739879989626        0.06123247481167
C            0.00184154456014        2.01237251662939       -0.02268446459729
C            2.12145253259853        1.16985425294681       -0.76600717775803
C           -3.02523212153314        0.07502872076153        0.54730388938496
C           -4.08192448763318        0.95322249368816        0.40257638214962
C           -2.44250163727004        2.66846724429558       -0.13701419126283
C           -3.74775540143526        2.26972985632950        0.02857519487550
C            0.69043364362011        2.97742859191164        0.74051939863150
C            2.06234040196845        3.01357859502141        0.71851478697719
C            2.83603525879515        2.08419176680189       -0.03440780359855
H           -4.54632317650062        2.96737680345073       -0.16875110109277
H            2.58329936983597        3.71600650745838        1.34821501041443
N           -1.75136429433424        0.43453841300707        0.35664975028323
N            0.77672337544381        1.15997739878114       -0.80126517272318
C            4.29896321222016        2.11187062245729       -0.01225490055872
C            4.97059753630680        3.33307923901416        0.07389794104096
C            5.04784623276085        0.93637082640094       -0.06783427229823
C            6.35066951219493        3.37474980587705        0.10245952730855
H            4.40740916198659        4.25437769408096        0.08981345511634
C            6.42805718554741        0.98549284113608       -0.03575201094982
H            4.55259857110962       -0.01949180664869       -0.11654728849817
C            7.08560220268692        2.20134471803858        0.04978544463378
H            6.85617379494788        4.32745721202312        0.16184282399692
H            6.99192458911330        0.06594970583557       -0.07731619694022
H            8.16445525395963        2.23630923812020        0.07257123185429
C           -5.47034394764202        0.52321488432929        0.58006499091894
C           -6.39197316112445        1.36081462842979        1.20718462248145
C           -5.89400743277036       -0.71652745373165        0.10137150114047
C           -7.70528106660243        0.96101631205618        1.36338484156563
H           -6.06922856722546        2.31689109631052        1.59333829218696
C           -7.21021391752561       -1.10711868615481        0.25705812984279
H           -5.19528766908898       -1.35728025129537       -0.41412451102897
C           -8.11826487875424       -0.27371870340426        0.88995792716569
H           -8.40936188289461        1.61376667426209        1.85832784924785
H           -7.53073647645244       -2.06613298351113       -0.12144654113829
H           -9.14524105504129       -0.58376694882294        1.01242735567495
F           -3.19893040050744       -1.16453740272396        0.98778395824468
F            2.69720450641955        0.26960887278564       -1.55223039260156
C           -0.04363651458156        3.89411289523572        1.67208582595919
H           -0.16659722800781        4.87821807744173        1.22354026105222
H           -1.02353253201738        3.50002855562110        1.92286198711990
H            0.53046228395120        4.01861108198243        2.58718342583691
C           -2.15225931721433        4.04717380380890       -0.64826703054988
H           -2.81344083237958        4.26440110471130       -1.48478674400825
H           -2.33776359212687        4.79643368723149        0.11927986909540
H           -1.12436902146107        4.13110993662295       -0.98663074663993
