71
 energy: -124.903282339885 gnorm: 0.000891409907 xtb: 6.5.1 (b24c23e)
Si          -0.16733737539560        0.99390704341371        0.09820970774024
O           -0.79550912802595        2.47196482005365       -0.05736173355448
C           -1.72914834828377        3.21965024242845        0.67936622279889
C           -2.63918862256022        3.97112677158129       -0.25654705805701
H           -2.31975616945461        2.55055175165390        1.31521189333883
C           -2.17860796491491        4.40425922963356       -1.49223329149783
C           -3.93902467164533        4.26967629903239        0.13055856299632
C           -3.01023859521754        5.12357285671143       -2.33201094978168
H           -1.17128480008358        4.15977756301212       -1.79228093908703
C           -4.76648878005481        4.99601332849751       -0.70693606767873
H           -4.30232692426081        3.92709051838302        1.08931518904076
C           -4.30353657774340        5.42445517877579       -1.93989191900674
H           -2.64678139660796        5.45225024638565       -3.29477886863309
H           -5.77650550725046        5.22400984334558       -0.39846906463946
H           -4.95143434973289        5.98848499637102       -2.59497261135414
C           -0.95698974715803        4.21533753205638        1.57146565265537
C           -0.05217748149892        3.50506320951315        2.44861289906969
H           -1.67205337914611        4.80243711073905        2.15282134607719
H           -0.38195762991624        4.88565661433980        0.92642274099028
C            0.69973005492103        2.85110085317888        3.11073701377003
H            1.36228217753318        2.30662325607717        3.71418470008199
Cl          -1.59420341463449        0.29828786835059        1.59403637812832
Cl           1.39217709917117        1.67158424199430       -1.21823243164253
O           -0.55982577259279       -0.20965840527228       -1.07298374046812
O            0.93892394741097        0.01980389030975        1.03893735586690
C            0.23918089285451       -2.28107627377105       -0.26159474317315
C            1.58671275989435       -1.77717591346514       -0.33605821740132
C            3.13488803281906       -0.08151968168651        0.33473323591232
C           -2.09952734892222       -1.82588959859243       -0.49518203337137
C           -2.47236422165240       -3.07240000675394       -0.05264961881634
C           -0.09297181593740       -3.57435014693220        0.19134832515768
C           -1.41255445454721       -3.94823078487959        0.28856922573857
C            2.61962828348635       -2.38149955455346       -1.07915228142449
C            3.87602385347129       -1.82173704214397       -1.08381018337549
C            4.17942715285624       -0.64478522868173       -0.35938128901070
H           -1.66107942972222       -4.91486522847123        0.69664503892308
H            4.64652438132378       -2.25408527578553       -1.70204083377994
N           -0.81470881744716       -1.46023540993740       -0.62471407596257
N            1.91264970676320       -0.63318178471183        0.36965016403284
C            5.51281290654408       -0.03923250585170       -0.38418917696495
C            6.65034620181309       -0.84450310130971       -0.33988900363207
C            5.66091050909886        1.34474415088350       -0.47008999813276
C            7.90934045302637       -0.27564918040838       -0.36575948546469
H            6.54436065167560       -1.91664943115820       -0.25970298923345
C            6.92364152051540        1.90556676353405       -0.50013806253393
H            4.78549121238032        1.97132309372937       -0.53945933899951
C            8.04980841856821        1.10037706383546       -0.44416332324887
H            8.78443114424987       -0.90734992433423       -0.32179721403629
H            7.02959326851515        2.97763512535494       -0.57030784970128
H            9.03468237116960        1.54262351671157       -0.46348830253078
C           -3.87700020605447       -3.45830896779375        0.09806382234967
C           -4.28935201544421       -4.74959474069948       -0.22981431091351
C           -4.81377042270291       -2.55024766441497        0.59110229332532
C           -5.61187858012608       -5.11970415559408       -0.07858637673769
H           -3.57418832296481       -5.45469026232108       -0.62775561062374
C           -6.13376407666873       -2.92949575948146        0.74393176065414
H           -4.49921078199857       -1.55853710028793        0.87647404543045
C           -6.53789618259088       -4.21141202293297        0.40813386511883
H           -5.92253474802797       -6.11968738605650       -0.34351480155883
H           -6.85091550164963       -2.22111829033761        1.13048959858050
H           -7.57072616691616       -4.50312528877534        0.52637771193967
F           -2.97155809417308       -0.92828509967168       -0.92711575806203
F            3.28161814306168        0.97339405074193        1.12073052165861
C            0.96231868071277       -4.51396298502283        0.69254617437938
H            1.12861632678332       -5.31912158229183       -0.02078915743188
H            1.90201821819324       -4.00007962113528        0.86705475356738
H            0.63055112792157       -4.96411755274870        1.62543054477631
C            2.34586877039357       -3.55425965609385       -1.97214204568551
H            2.76389741020489       -3.35839344902345       -2.95723617789247
H            2.82286394652924       -4.45269382556749       -1.58480821595074
H            1.28115619985927       -3.73513314167942       -2.07638659304390
