71
 energy: -124.899238770622 gnorm: 0.000430680309 xtb: 6.5.1 (b24c23e)
Si          -0.00306855559674        1.31741454212519        0.52956980946001
O           -1.12467821375808        2.35940375345489       -0.06021566620214
C           -2.52687751728418        2.33143439822696       -0.08359638116135
C           -3.03027814582847        3.64563742925265       -0.63032837582883
H           -2.84408159713780        1.51236599416188       -0.74136333110703
C           -2.38332881338637        4.82902011728787       -0.30272436445007
C           -4.16475631185380        3.68759075178283       -1.42929961506602
C           -2.86131264100995        6.03844400192061       -0.77428426756379
H           -1.49652537428838        4.78783170819635        0.31087066949119
C           -4.64580733754164        4.89844781677588       -1.89502091443179
H           -4.67007368795372        2.76745531690005       -1.68843520125902
C           -3.99465119045111        6.07610990546684       -1.56874655585904
H           -2.34876042566170        6.95455891973196       -0.51954554084516
H           -5.52886587244726        4.92268436354033       -2.51725755499461
H           -4.36884797440618        7.02066256808279       -1.93599715862570
C           -3.15244669221046        2.12212728137624        1.31429401654149
C           -2.94512099492293        0.79347806855371        1.84319640757031
H           -4.22615751918163        2.31471270749626        1.23613795209104
H           -2.70820538040886        2.84621600151993        2.00163986113311
C           -2.76679174924078       -0.30806810265823        2.27913464488618
H           -2.61290640852560       -1.25882454885520        2.69649211653188
Cl           1.49307427030721        2.12311641201493       -0.62313318571887
Cl          -0.12795811117275        1.89111463241194        2.51521512677625
O            1.12969392962034        0.02491162160484        1.28147650770114
O           -0.61490505793820        0.01728105407554       -0.49414068115586
C            1.65088739798617       -1.65597164209542       -0.25685962619123
C            0.31823825505708       -2.15819707500220       -0.09266861014533
C           -2.03189334084745       -1.76314972852910       -0.22311340330115
C            3.26316877168400       -0.05274746391813        0.44254345720589
C            4.25218247729271       -0.57509561843401       -0.36469408040162
C            2.61528112579254       -2.21533712744605       -1.12427256532955
C            3.87684750242921       -1.67295940335628       -1.16907744986234
C            0.03140184656939       -3.50877978174951        0.21786610970278
C           -1.26728905798743       -3.93645914049113        0.30611487964866
C           -2.36273093046240       -3.06992301573436        0.03417207338996
H            4.59645959889554       -2.06232416952703       -1.87197016410969
H           -1.47672788680475       -4.94832569241351        0.61273860229960
N            2.02803452799985       -0.56606830921532        0.49072717829951
N           -0.76618545579852       -1.29906858673962       -0.22260476913609
C           -3.74464195679305       -3.55060340379202        0.04888266224982
C           -4.03561657284115       -4.83996335726339       -0.40112473926619
C           -4.78590274639031       -2.75464018425073        0.52955976619338
C           -5.33121425082747       -5.31725645841826       -0.37399780752407
H           -3.24422761673618       -5.45904608652091       -0.79726694583731
C           -6.07907366672821       -3.24057634310897        0.55656467156778
H           -4.58124591959949       -1.76239246031339        0.90216626834914
C           -6.35796872078253       -4.52063201639927        0.10641035433159
H           -5.54204705335099       -6.31446942851675       -0.73132496922871
H           -6.87384775118519       -2.61608308509501        0.93621263175533
H           -7.36987228418759       -4.89605226254260        0.12945787297729
C            5.59900884407797       -0.00276637833990       -0.41073114359518
C            6.71150543089093       -0.83836266688794       -0.50718302664023
C            5.78624075346767        1.37891935957043       -0.37552370917833
C            7.98448839470903       -0.30345763475476       -0.55376291747700
H            6.57628337310778       -1.91021410610219       -0.51885756520972
C            7.06265612800643        1.90595853175730       -0.42789076634572
H            4.92979789483789        2.03362566002466       -0.33108499229984
C            8.16405120851949        1.06965775209228       -0.51333689396914
H            8.83998005443768       -0.95974900293836       -0.61828596956325
H            7.19842833935291        2.97661325536837       -0.40371882577176
H            9.15981288157080        1.48558462392140       -0.54920015095475
F            3.49490714949036        0.92343999845005        1.30490442589732
F           -2.94219996945948       -0.86848407246000       -0.59426000895048
C            1.12884111394304       -4.46553488053760        0.57905537895774
H            1.25164445965463       -5.22139399548183       -0.19412877720872
H            2.07460897220898       -3.95472394905417        0.72668331401649
H            0.86391451192518       -4.98056348431453        1.50033163037145
C            2.25330583607913       -3.30020359387957       -2.09351995434773
H            2.60825860854598       -3.02585101904159       -3.08484716765491
H            2.73235091540402       -4.23897487972143       -1.82202454954778
H            1.17963217912977       -3.45194639125771       -2.13819304607723
