71
 energy: -124.908434128084 gnorm: 0.000571071134 xtb: 6.5.1 (b24c23e)
Si          -0.22806936132920        1.75745211419787        1.05378411042970
O            0.54000659470953        2.65124648399750       -0.05324433478016
C            0.48159819999706        2.64418996845419       -1.46729480902699
C            1.28657228999770        1.49774274244107       -2.02236164834665
H           -0.56294536129979        2.54324671741335       -1.77703317302670
C            2.60218836687844        1.31189306734991       -1.61702900210421
C            0.72572307837163        0.60684958823498       -2.92741725033962
C            3.34798693724242        0.25925346854641       -2.11818150415927
H            3.03510827041035        1.99548458172146       -0.90096140948909
C            1.46398172225364       -0.45826732363441       -3.41168131834357
H           -0.29728003962977        0.74676291631731       -3.24423699226825
C            2.77773668404257       -0.63210636107336       -3.01068388378333
H            4.37652832602041        0.13073093695577       -1.81434019713681
H            1.01398332399523       -1.15133001048463       -4.10814285934253
H            3.35948661005716       -1.45729763212445       -3.39485598554706
C            1.03125059360570        3.99358185851209       -1.96066881193374
C            0.11618328072906        5.06784059987113       -1.63951650870904
H            1.17858783523160        3.94287345595158       -3.04322179698234
H            1.99210456773750        4.18131910966186       -1.47682563254941
C           -0.66886675230770        5.92752402649154       -1.36460099552884
H           -1.34149075515460        6.69331071252797       -1.11821125306064
Cl           0.57562347524640        2.87140555991775        2.61608147356765
Cl          -2.18766884487556        1.87811162753183        1.67734474832865
O           -0.81792283634758        0.62947637359882       -0.44197093834086
O            0.40343867470224        0.29087116210857        1.70879765080944
C           -1.04203894080979       -1.58201501258363        0.25503816617252
C            0.38842398285372       -1.64279144333167        0.31413528867171
C            2.41806031442988       -0.60024865896399        1.04280383487280
C           -2.92897223250569       -0.25860219367896       -0.33049491835315
C           -3.82910859588112       -1.26131320033924       -0.03315592790037
C           -1.91673602002023       -2.63647262296271        0.59688395468612
C           -3.27267143742041       -2.46062941245168        0.46208155014061
C            1.17269198147668       -2.62726373113866       -0.32577658174653
C            2.53884843388098       -2.59153060041436       -0.22249150995256
C            3.22182954318168       -1.57169338906748        0.49890658355808
H           -3.94279393693477       -3.24454023511720        0.77783264709328
H            3.12658166424950       -3.31846326273062       -0.75850178368809
N           -1.60826682690551       -0.39940277409904       -0.16853499955481
N            1.07467697042946       -0.63767767742895        0.98024608648747
C            4.67981719215370       -1.57619747138860        0.62520378123041
C            5.35835763387445       -2.79600785688119        0.68821316884700
C            5.42562821664814       -0.39692615174461        0.67965531865859
C            6.73454723453772       -2.83425984701628        0.79576493505530
H            4.79950672904653       -3.71985445386309        0.68194723513180
C            6.80283466862734       -0.44194562426819        0.78290343579466
H            4.93380897107543        0.56088018364803        0.62909265822552
C            7.46436806160053       -1.65753821547239        0.83909468595821
H            7.24051973001906       -3.78702884056931        0.85012224985257
H            7.36373977731762        0.48004378300331        0.81845626832857
H            8.54029659516758       -1.68822549578335        0.92075867204539
C           -5.27373617267001       -1.07803014431789       -0.18204571222463
C           -6.07254140181018       -2.12758049991859       -0.63600587672755
C           -5.87327958573786        0.13653069215699        0.15207854413711
C           -7.43824261335932       -1.96196459441252       -0.76243928751231
H           -5.61592260319015       -3.06678111950189       -0.91297154092589
C           -7.24056192428000        0.29265003818662        0.02701492186727
H           -5.26966656124460        0.94619786554757        0.53205863990273
C           -8.02661545307118       -0.75198912554961       -0.43170240940562
H           -8.04642694728044       -2.77882169657621       -1.12245616224229
H           -7.69569246020772        1.23473213965886        0.29298863409112
H           -9.09429774308525       -0.62517421049885       -0.53009633641589
F           -3.29804063310596        0.88101018895183       -0.90168925740758
F            2.89787687118325        0.42700756616590        1.72968606364627
C            0.54378056296406       -3.65016214001706       -1.22358274122021
H            0.56211410210445       -4.63571139025890       -0.76225422054469
H           -0.48267184677627       -3.39167927424601       -1.46244166621613
H            1.11329921598534       -3.70825292152164       -2.14860962369108
C           -1.40048919202980       -3.89636160505719        1.22352776284038
H           -1.99374809496870       -4.12654309091803        2.10615082766145
H           -1.49263916229910       -4.73693070986915        0.53806684866238
H           -0.36132594749632       -3.79363450784625        1.51936011377110
