71
 energy: -124.907149151514 gnorm: 0.000351071904 xtb: 6.5.1 (b24c23e)
Si          -0.12719533743965        1.03830582769409        1.29038163906841
O            0.44821145059938        2.24471101302963        0.39772459789701
C            0.18005156502064        2.71128325521604       -0.90550004856059
C           -0.63366640489895        3.97998112461547       -0.84688342074478
H           -0.36907556267798        1.94541180698903       -1.45966491671938
C           -0.56044481131726        4.81902550266911        0.25584604854572
C           -1.45178844606228        4.32455442703436       -1.91532317856692
C           -1.30044314508226        5.98809065466334        0.28995148666291
H            0.06472877172711        4.54075839484074        1.09040761021108
C           -2.18540501190289        5.49648091320680       -1.88186745879227
H           -1.51730571995451        3.66744255651023       -2.77120939497879
C           -2.11092813800309        6.33068789284857       -0.77866729426191
H           -1.24355473262301        6.63226379702792        1.15479844458239
H           -2.82172856410801        5.75613741580556       -2.71545507330256
H           -2.68847211116973        7.24307839656106       -0.75118408892610
C            1.53290499427953        2.97049425410715       -1.59745757207647
C            2.17087233798446        1.72742120880223       -1.96860389070002
H            2.17076354593512        3.52346856556623       -0.90343153206550
H            1.36919008884567        3.57676136943736       -2.49213128840122
C            2.65463607800695        0.67575871569601       -2.27313419081180
H            3.10549709360763       -0.22687263787106       -2.56002493432819
Cl          -2.08989481664755        0.78844578731146        1.86815575540275
Cl           0.52040798379373        1.88917989897874        3.07890781205412
O           -0.56117217630100        0.07991992892373       -0.41235876161942
O            0.79825037981676       -0.35805131730858        1.63471918854015
C           -0.55630233888249       -2.20911487524591        0.06307763212150
C            0.87380903226615       -2.14470386156646        0.05747868703265
C            2.79448709393558       -0.80511498452566        0.57212347213273
C           -2.56451829256291       -1.02456901090109       -0.40236930401701
C           -3.36554287636132       -2.12482172490467       -0.17559685792836
C           -1.33077419618729       -3.34871681839684        0.37208475505552
C           -2.69827785345467       -3.29140640343917        0.25403533633434
C            1.71692032039508       -3.00993759252446       -0.67388954184617
C            3.06583689269460       -2.76228467661939       -0.73105897694723
C            3.65440038173102       -1.62098782792848       -0.11891584578160
H           -3.29119279580986       -4.14713365429450        0.53611719040135
H            3.69694405688786       -3.40166482539230       -1.32757048132264
N           -1.23392340392532       -1.05151758413843       -0.26194935263135
N            1.48544247202663       -1.08231461323858        0.71061567827446
C            5.08375348015827       -1.33183568208606       -0.25458985826026
C            6.00775473329447       -2.37732335566526       -0.22480204823241
C            5.54544433063539       -0.02718808376891       -0.43088831769834
C            7.35850412488320       -2.12252113995884       -0.36066756356301
H            5.66522731774507       -3.38952889763017       -0.06725995113194
C            6.89793359599436        0.21924149915479       -0.57057535726371
H            4.84284289954832        0.78990565122210       -0.48355727833263
C            7.80868735799780       -0.82390012110823       -0.53485994006350
H            8.06366993325386       -2.93997304364467       -0.32756268537635
H            7.24232726835012        1.23278131678674       -0.71094610119776
H            8.86468270765669       -0.62662638385379       -0.64201109008662
C           -4.82199315779953       -2.07013506960997       -0.31321912613554
C           -5.51772127853192       -3.15998898193410       -0.83629704165322
C           -5.53443221191125       -0.94428813137339        0.09973081230916
C           -6.89360577612849       -3.11930754266008       -0.95430632939156
H           -4.97334717427052       -4.03060657624500       -1.17245238660392
C           -6.91093303709778       -0.91300410776533       -0.01772732822863
H           -5.01013048217422       -0.10797396978263        0.53523111880036
C           -7.59442570511002       -1.99600964378023       -0.54625402049898
H           -7.42161795653693       -3.96595925609484       -1.36799507671660
H           -7.45372887807419       -0.03890650547926        0.30915071269104
H           -8.66981084893282       -1.96657682788294       -0.63840415824998
F           -3.04439691444162        0.11957987528603       -0.87514757919190
F            3.20050138023864        0.27665835951303        1.22083144728711
C           -0.69751648165219       -4.57391924359138        0.96017887791588
H           -0.75620429931327       -5.41528830713395        0.27227736219338
H            0.34114488421161       -4.39536009967127        1.21866215685101
H           -1.23670501751302       -4.85199297378352        1.86378859792817
C            1.15660287717233       -4.13062700812421       -1.49741773530924
H            1.68261193272929       -4.17895602157047       -2.44827723543371
H            1.29738947255778       -5.08609721752455       -0.99568399770618
H            0.09819711887789       -3.98891780947771       -1.69087680863632
