71
 energy: -124.907075504742 gnorm: 0.000594647731 xtb: 6.5.1 (b24c23e)
Si          -0.39837056787615        0.99040395817568        1.26746798742443
O           -0.12964608428616        2.29997377781363        0.37624763090191
C           -0.57596165567969        2.72006101883317       -0.89350904958089
C           -1.71735469731253        3.69602132942382       -0.75212991130104
H           -0.90574118425014        1.84905843781106       -1.46659401893958
C           -1.87322202840272        4.44480000959234        0.40548305334670
C           -2.61794418943249        3.85804863674998       -1.79741240373973
C           -2.92199294783295        5.34092028504584        0.51804463582765
H           -1.17968551320093        4.30864132415814        1.22110200926333
C           -3.66073232186173        4.75939986382447       -1.68570204348124
H           -2.50374041667247        3.26925711424504       -2.69684885269920
C           -3.81539403461853        5.50203642927818       -0.52671219104176
H           -3.04071512026773        5.91332716925938        1.42603080697270
H           -4.35877405214115        4.87740054508849       -2.50178375610403
H           -4.63424810038679        6.20084408527303       -0.43782497120177
C            0.61951894698085        3.37807154192469       -1.60933644914676
C            1.57277536635233        2.37885699798223       -2.03796305054318
H            1.09590444988077        4.07201197730021       -0.91244156818032
H            0.25860557058512        3.93495241621668       -2.47773563541094
C            2.32602832991820        1.51606910188802       -2.38573119309508
H            2.99988022655712        0.78166186767860       -2.71281605301428
Cl          -2.23000272117430        0.26885872236923        1.86617216696004
Cl           0.06647959289752        1.94195007461311        3.06079510382870
O           -0.63788228074619       -0.02800429730617       -0.46210028394824
O            0.84158728806601       -0.15000730198375        1.55110477639499
C           -0.03707885393875       -2.24562489456017       -0.03949675569880
C            1.32820827298465       -1.81546107966814       -0.08133135067381
C            2.85334040718396       -0.03617276992645        0.42722423604209
C           -2.29503245936288       -1.60417303413755       -0.41429852161537
C           -2.78206502442663       -2.87510082599754       -0.18630423977468
C           -0.48423657731796       -3.54997019147237        0.26299015127411
C           -1.82519859767449       -3.84044712175486        0.19148078423574
C            2.34078736016475       -2.41392922533647       -0.86209204065583
C            3.57638782727037       -1.82224054302651       -0.94791744732562
C            3.87093794448925       -0.58370393069524       -0.31236582083394
H           -2.17049813546885       -4.82338789436080        0.47070232928558
H            4.33060667051033       -2.26044725627815       -1.58188341639580
N           -0.99732049478435       -1.29306653524308       -0.31477251313448
N            1.66540500064012       -0.64635675279822        0.58874728870406
C            5.17499205119299        0.06459608323989       -0.46886470341408
C            6.33403070266923       -0.71246932643071       -0.49938762517415
C            5.28664260317504        1.44871122535438       -0.60401199160228
C            7.57162288856639       -0.11937132299449       -0.65553146015506
H            6.26378587220713       -1.78280653738273       -0.37245137524683
C            6.52795719825057        2.03424084689890       -0.76504475073521
H            4.39960540806809        2.06286141648242       -0.60820549523067
C            7.67342328269934        1.25572904686035       -0.79048599841956
H            8.46111364486816       -0.73192786270152       -0.66904146270373
H            6.60033396261422        3.10588387151883       -0.87425464146553
H            8.64136211596854        1.71753445428036       -0.91446634798531
C           -4.20935315705737       -3.18944412266077       -0.27084241725612
C           -4.62806167199848       -4.41392073276016       -0.79125437922475
C           -5.16563951092615       -2.28590146327649        0.19274463928266
C           -5.97313613471350       -4.72249991832384       -0.85602640227449
H           -3.89575880355760       -5.11389182521062       -1.16683750376794
C           -6.50889696596179       -2.60367867054996        0.12816807675099
H           -4.85250407101505       -1.34868157666157        0.62585051080216
C           -6.91763130773852       -3.81877456478988       -0.39707144508159
H           -6.28654592362417       -5.67072097857983       -1.26761862531106
H           -7.24098662623865       -1.89967558175425        0.49415941170127
H           -7.96831874450385       -4.06245287360403       -0.44712637278214
F           -3.06675698506370       -0.61399175903078       -0.84715620097856
F            2.98820232651140        1.09586132156407        1.10277601742438
C            0.46191983092322       -4.58415831029207        0.79482276357774
H            0.60013941826683       -5.39388374291052        0.08079446246191
H            1.42717389384290       -4.14918248112840        1.03305232277470
H            0.04246906723205       -5.01564243293087        1.70165798256056
C            2.06148053090585       -3.62382551528810       -1.70217821780527
H            2.56186051299572       -3.52169110100440       -2.66243693624459
H            2.44731258622846       -4.52253666021880       -1.22474516958400
H            0.99702880983656       -3.74831893571711       -1.87394108781715
