65
 energy: -118.225114638462 gnorm: 0.000691805573 xtb: 6.5.1 (b24c23e)
Si           0.08799588321690        1.29622309124191       -0.17578119433041
O           -1.42858612792013        1.12794677223370        0.39268098296571
C           -2.19009480789748        2.01763275009167        1.17751211353073
C           -2.52161917813223        3.28488411140575        0.43337445596896
H           -1.62237216095092        2.26117473664070        2.08341255509747
C           -2.79705251540719        3.24397250005533       -0.92580930423301
C           -2.56877948223747        4.49974931047249        1.10254502438991
C           -3.10360152953114        4.40517359250127       -1.61184636419211
H           -2.74919890380789        2.30176974207569       -1.45107244908830
C           -2.88285790129691        5.65923800041153        0.41749512524986
H           -2.34145784476099        4.53678775148056        2.15787523388673
C           -3.14924480679802        5.61460224788889       -0.94068512278952
H           -3.30306891387891        4.36399864714128       -2.67243499696194
H           -2.90923109186935        6.60227239061848        0.94349795897111
H           -3.38497771646198        6.52249250216567       -1.47626341883961
C           -3.48823837779762        1.28671241359359        1.56878762644919
C           -3.18922848730484        0.04578217418116        2.24903156190356
H           -4.07862531211328        1.93814431888527        2.21768364691736
H           -4.06181844140218        1.08258524437640        0.66006322359767
C           -2.88978190608784       -0.98790744963612        2.77286445280824
H           -2.65606229121778       -1.88839055023252        3.25668892189408
Cl           0.55663426262918        2.02267976671105       -2.03067572481191
Cl           0.60597636193857        3.07764091869946        0.89205083314502
O            1.24438442274443        0.48670710859044        0.80537132488623
O           -0.14807715651099       -0.30835103839402       -1.08020964597787
C            1.61296240221898       -1.82009415013223        0.38479906519767
C            0.23469354676566       -2.14133227777671        0.31212663308959
C           -1.93947814571659       -1.67342384771293       -0.54809770377325
C            3.37254188114758       -0.19264636336042        0.20316248839140
C            4.34659429274523       -1.16362219303777        0.13468513564390
C            2.60588691129694       -2.82261498136245        0.39925358712786
C            3.92715709153967       -2.51394578464350        0.28397857094989
C           -0.29097417078572       -3.31933899571485        0.88593830930029
C           -1.60649038324633       -3.64506997017225        0.75147353903008
C           -2.48454790665841       -2.81148182724566        0.01950563627054
H            2.28949162867836       -3.85188099184780        0.43777301644016
H            4.67595858135897       -3.28918957988308        0.28064513091063
H            0.36871815243362       -3.93532047686514        1.47413517051784
H           -2.00527136081952       -4.53245283986316        1.21669440036781
C           -3.89218800405153       -3.19205525593016       -0.14495878120021
Cl          -2.83463293860560       -0.66242036379054       -1.57799249382703
N            2.06829394378113       -0.51267988655423        0.40294516228384
N           -0.63834185481535       -1.35678861529056       -0.41042020815419
Cl           3.69364720671491        1.47501579009926        0.02594527751138
C            5.76835541407383       -0.86347012012331       -0.08191288479966
C            6.48440829524140       -1.59051385489547       -1.03155943132527
C            6.43280086385828        0.10123664486204        0.67173653035209
C            8.47996878728725       -0.37654800452114       -0.48832602898436
C            7.77907029269018        0.33985849944406        0.46774486631313
C            7.82865624364008       -1.34313588375505       -1.23660135448909
H            5.97489893748111       -2.33483524903160       -1.62601143135925
H            8.36992511280107       -1.90557180594678       -1.98301574480121
H            9.53037173771921       -0.18461681873710       -0.64790323284878
H            8.28471017767398        1.08766606141477        1.06022416949915
H            5.89794830830123        0.64753799144642        1.43221695800808
C           -4.20830030758651       -4.49790335242489       -0.51778010423490
C           -4.92537455910529       -2.28953936501924        0.09491048529998
C           -6.54803333992067       -3.97835689731060       -0.43293141031758
C           -6.24242504815444       -2.68366689582601       -0.04673675933720
C           -5.52680818475337       -4.88451503727613       -0.66628499248104
H           -3.41336311434719       -5.20264840896564       -0.71467312837413
H           -5.75854268773484       -5.89590349926828       -0.96603420872131
H           -7.57785330936178       -4.28160733677114       -0.54751905505098
H           -7.03523086361529       -1.97722192762675        0.14923718411781
H           -4.69098260731522       -1.29227018177881        0.42838981702299
