65
 energy: -118.133937163399 gnorm: 0.000675882965 xtb: 6.5.1 (b24c23e)
Si           0.21294202194735        1.08977453998874        0.87352086349752
O           -1.01842141892542        2.32247094699887        0.39407299554952
C           -1.41196020237693        2.62268806758987       -0.75638259950019
C           -2.60304601067381        3.37169317776636       -0.98795500588466
H           -0.82516049465171        2.30382406050617       -1.61916469364631
C           -3.40362899095008        3.78996131494739        0.09038995912538
C           -2.98951181914206        3.70689112731528       -2.29659901788467
C           -4.54887985148073        4.51839071308559       -0.13953021333079
H           -3.09495956089051        3.52082269597348        1.08897389139051
C           -4.13789073981546        4.43708788090017       -2.51219408013406
H           -2.37452148866559        3.38889759880392       -3.12516451488055
C           -4.91997808106630        4.84516849411513       -1.43847332017105
H           -5.16074598876798        4.83915766664915        0.69045977403456
H           -4.43225124019269        4.69577502382666       -3.51858869031399
H           -5.81791210240616        5.41840598481418       -1.61444197122047
C           -3.44172627805824        1.20838117963450        2.55421225829696
C           -2.25491561204108        0.72893869595191        2.33837524576744
H           -4.30805268034484        0.87706804772679        2.00189004205284
H           -3.61481003593464        1.95049137144303        3.31711043755603
C           -1.07081468366118        0.28693874840655        2.07839408980936
H           -0.69874689805502       -0.57280591237725        2.61974461256173
Cl           1.60318077910205        1.81684028318378       -0.68456515114401
Cl           1.00405064183791        2.39758166494464        2.34638947804929
O            1.28902916914354       -0.34898073985080        1.26638348090347
O           -0.41425328059633        0.01500783594564       -0.62727401553991
C            1.66758902849589       -1.80610423344920       -0.48431944293539
C            0.28467565998529       -2.19598553086331       -0.46221465023743
C           -2.01671550451930       -1.60619153412288       -0.37062035620651
C            3.42449724817103       -0.45718865823323        0.39065316266436
C            4.35092216324660       -1.01219478994376       -0.48068598157312
C            2.59105909482615       -2.42232364851487       -1.33681045523396
C            3.89922353798596       -2.01903423560796       -1.35666720801880
C           -0.09487155933955       -3.54513846844545       -0.49953081726324
C           -1.40771033422349       -3.91278621609061       -0.39722517113124
C           -2.41814173115553       -2.92818868118740       -0.29212457681252
H            2.23444365923672       -3.18071465542129       -2.01491291102271
H            4.60337022341854       -2.47140527007220       -2.03648921049377
H            0.68388915503083       -4.28910559652393       -0.54538972153162
H           -1.68909250675353       -4.95255714536396       -0.36608893258535
C           -3.82242525465329       -3.31259652746873       -0.12341551421517
Cl          -3.12404922640590       -0.31156608023041       -0.52411210993096
N            2.13434550713986       -0.85104729900649        0.37975489920615
N           -0.71794990961298       -1.25205269564200       -0.45006261515689
Cl           3.81884355348862        0.73277746754861        1.53664039750069
C            5.75671606380546       -0.58598656868524       -0.51917707818530
C            6.33721795386928       -0.27087831007121       -1.74633346912256
C            6.53447154693727       -0.52214429770567        0.63404962728457
C            8.42685190147244        0.18668261493754       -0.66297983689312
C            7.86073654043510       -0.13941622255418        0.55828681192790
C            7.66118922190611        0.11946699748170       -1.81500445731186
H            5.73538457542537       -0.30584579547576       -2.64223741935683
H            8.09676008169353        0.37396975089456       -2.76989969346078
H            9.46120620459305        0.49140745267778       -0.71713085726529
H            8.45594940232283       -0.09537996746670        1.45804457499877
H            6.10324252337731       -0.79041199135848        1.58527577493930
C           -4.36740472925394       -4.33604327287164       -0.89706085213815
C           -4.61864721536849       -2.69490741178304        0.84005012366155
C           -6.47068686742057       -4.09531270992118        0.23023877609526
C           -5.93232986428673       -3.08673468387127        1.01297525867689
C           -5.68388612545550       -4.71925037157362       -0.72374278644508
H           -3.76079813285704       -4.81368144438762       -1.65250604623818
H           -6.09799833439541       -5.50724004222561       -1.33530520672099
H           -7.49843366950077       -4.39680753142074        0.36600043382836
H           -6.53899062239008       -2.60613130873036        1.76594056041430
H           -4.19526441260543       -1.92765655553868        1.46987012134463
