65
 energy: -118.215868493773 gnorm: 0.000946440160 xtb: 6.5.1 (b24c23e)
Si          -0.23078927953078        0.81880093105217        0.50186568159510
O           -0.84667378898735        2.25642011058844        0.88360271444037
C           -0.67992697736809        3.57397299278834        0.42168564030181
C           -1.94094344115233        4.04147174076334       -0.25960495834569
H            0.15846365330418        3.61809195637771       -0.28267239561309
C           -3.17046427056859        3.48943601366669        0.07136397666176
C           -1.87935503891371        5.04641394887074       -1.21652546253785
C           -4.32312047876359        3.93098944805379       -0.55413939435157
H           -3.21368646324370        2.70586238285413        0.81251015853448
C           -3.03353734329758        5.49272223840035       -1.83413299066552
H           -0.92196499978562        5.47317202752576       -1.48061528213542
C           -4.25767862070188        4.93415844639087       -1.50568998959536
H           -5.27546274513817        3.49095837167613       -0.29600391486236
H           -2.97679569066138        6.27382901094309       -2.57829396711101
H           -5.15779792251601        5.27884996564516       -1.99337637179585
C           -0.35726947216903        4.46211050465992        1.63900328806351
C            0.93175824079653        4.11057260064425        2.19345611887002
H           -0.35655153315700        5.50967724909342        1.32787523882235
H           -1.13385151146111        4.31267567115501        2.39321340517019
C            2.00214423694974        3.77990847229483        2.61386122053922
H            2.93818554470458        3.51183952562313        3.00324795243302
Cl          -1.52896196998316        0.00289505920805        2.00353411804831
Cl           1.19797993003165        1.59446424804939       -0.98468905649148
O           -0.78476463406205       -0.20480205512997       -0.76647316565156
O            0.96318024892631       -0.22732672525961        1.18138106724230
C           -0.01022993672645       -2.38218872114208       -0.32847675198545
C            1.35979915889468       -1.98432725871712       -0.31892399780910
C            3.10355389573422       -0.46607711412171        0.32028529254997
C           -2.35625913492108       -1.87708182563246       -0.43769207727883
C           -2.71484964408631       -3.19878584647608       -0.27637246359764
C           -0.35948954476764       -3.74290528429937       -0.22539541277472
C           -1.66200599233350       -4.14369342220558       -0.17977034882732
C            2.34126558866669       -2.75801910469792       -0.97095683686287
C            3.64386917015516       -2.35749212291682       -1.02610473777066
C            4.05934631655884       -1.15637097039073       -0.39801643347649
H            0.43592489006848       -4.46109212366500       -0.11172511565833
H           -1.91287653573044       -5.18576364982332       -0.06552387786772
H            2.02008916548464       -3.64218678519527       -1.49675787724368
H            4.37107866782007       -2.92828144482385       -1.58042347957338
C            5.44532521444721       -0.69090618028464       -0.51000123391691
Cl           3.47349651809794        0.87197755779491        1.29748269969352
N           -1.06026378141945       -1.49828719429695       -0.48879897955603
N            1.82128850681167       -0.87823721401533        0.36691944941242
Cl          -3.48843045014030       -0.62054056498766       -0.58608814923779
C           -4.11122506910156       -3.64535165930777       -0.18688613427798
C           -4.48535625621253       -4.49856467738685        0.84986015444638
C           -5.06396929960699       -3.26732262017549       -1.12962889490346
C           -6.73182827918005       -4.56271558497413        0.01310551677199
C           -6.36410005452513       -3.72649199790281       -1.02789212883105
C           -5.78849367049263       -4.94724760723582        0.95161316995609
H           -3.75402320879586       -4.78453145360750        1.59114271998731
H           -6.06953029826151       -5.59776908971172        1.76647691691940
H           -7.74937284940297       -4.91488146863733        0.09212567239931
H           -7.09417072361532       -3.43084818129622       -1.76657572842644
H           -4.77973229655106       -2.63066090933018       -1.95247388629765
C            6.49969065204303       -1.58206152541092       -0.31956949465554
C            5.72639151351815        0.63285695994623       -0.84379182838544
C            8.08009100201057        0.16714219357670       -0.76088656513346
C            7.03651969931072        1.05457371574585       -0.96843385624224
C            7.80793461554012       -1.15211569105258       -0.43850139144053
H            6.28953053109920       -2.60758197253865       -0.05283331403743
H            8.61804260024182       -1.84817687902333       -0.27795245078050
H            9.10254617528583        0.50141202329803       -0.85380180605118
H            7.24464869242178        2.08081668017022       -1.23174460446548
H            4.91536477841667        1.31925587881263       -1.03127336633672
