65
 energy: -118.221451338568 gnorm: 0.000506635321 xtb: 6.5.1 (b24c23e)
Si          -0.23887951101930        1.35984138426318        1.24648691558480
O            0.13981110352873        2.59559652124391        0.27769940739394
C            0.04794280687800        2.75570024688159       -1.12556773915622
C            1.24064588283891        2.09943180323590       -1.77075577015723
H           -0.86867521901163        2.27934783412278       -1.48423957282318
C            2.52492723178735        2.50007176680982       -1.42385311434097
C            1.07621728984827        1.06044972058419       -2.67583382873108
C            3.62634575608026        1.88921659164570       -1.99570457148153
H            2.65799977544257        3.28510378099579       -0.69487841674974
C            2.17839945594841        0.43962681748753       -3.23726957538348
H            0.07953857585024        0.73665117339445       -2.93748815743946
C            3.45541730462396        0.85909329962656       -2.90624640065165
H            4.62040580117107        2.21848417803460       -1.72835039309871
H            2.04117605530079       -0.37139744848527       -3.93777028871060
H            4.31362235291486        0.38195130269269       -3.35733082673239
C           -0.01911134067937        4.26231143366298       -1.42323048025500
C           -1.31527438850474        4.79088064260290       -1.05483487036959
H            0.15778120755773        4.42458998444953       -2.49020075876243
H            0.75534102578167        4.77379588934147       -0.84827898316973
C           -2.40340754641055        5.18031896247507       -0.74616990411661
H           -3.34674895969114        5.54323015468011       -0.46628290018136
Cl           0.60722631831677        2.31536567086164        2.89920873909994
Cl          -2.10518670530023        1.07591036470510        2.10470656038563
O           -0.80579168280011        0.36902574111125       -0.30431986414968
O            0.76516331211039        0.02116729167681        1.58798189403223
C           -0.94123366571699       -1.89523019314748        0.21506221254795
C            0.46998987353881       -1.98492234857602        0.32240512439462
C            2.61631613004728       -0.94401895243859        0.61298724835547
C           -2.88086097881055       -0.62256107998620       -0.34979887899398
C           -3.72671782682401       -1.70009092450386       -0.16279467183595
C           -1.78232157376246       -3.01341218054411        0.40055599989830
C           -3.13287673576498       -2.91515866690252        0.24734078098435
C            1.15219290969811       -3.16778667474952       -0.03616423950524
C            2.51044185157306       -3.21659624418877       -0.10309070209790
C            3.29259134510044       -2.06047196474597        0.17458912340447
H           -1.33609653410790       -3.93854816547772        0.72456473229252
H           -3.76886223020465       -3.76841975114687        0.42041476191261
H            0.56443479834919       -4.02453140080173       -0.32100384832938
H            3.01359766750078       -4.11758800730292       -0.41333672679027
C            4.75252222037007       -2.11693086016977        0.04639665453976
Cl           3.40688011131421        0.47120820559398        1.14670935072820
N           -1.55195081427013       -0.71570933651034       -0.14269723132026
N            1.26530219460851       -0.92872297643768        0.74481649661030
Cl          -3.43795844767977        0.90990479910696       -0.84647088999812
C           -5.18167300914127       -1.61387256683821       -0.34133465817091
C           -6.01763851624444       -2.10029145428339        0.66238353117547
C           -5.74954569237070       -1.08610641829529       -1.49820492186441
C           -7.94826443036599       -1.51157058934220       -0.63254866830452
C           -7.12400062897991       -1.03820825569439       -1.63977283592151
C           -7.39079351650894       -2.04285941625408        0.51879014314352
H           -5.58357946444427       -2.49720651322492        1.56806495007349
H           -8.02833654220531       -2.41170801581514        1.30845816124675
H           -9.02118698466000       -1.46776733455187       -0.74455450857039
H           -7.55411997493314       -0.63001575311376       -2.54226710341232
H           -5.11309239819739       -0.73212880571427       -2.29402015295007
C            5.44337277185203       -3.22052025049852        0.54645041027854
C            5.46997822989902       -1.10317203171875       -0.58441403614235
C            7.52353239564117       -2.28541742768151       -0.19662121261685
C            6.84389864400493       -1.19080078920619       -0.70518126987704
C            6.81815788791838       -3.29942289570300        0.42973181555653
H            4.90110629984774       -4.00506757306704        1.05335829639386
H            7.34177867472394       -4.15450172522320        0.83097835707095
H            8.59739648844937       -2.34867780400872       -0.28826923727308
H            7.38859446578701       -0.40051053170818       -1.20016798641235
H            4.94159910240733       -0.25969423322757       -0.99683147025444
