65
 energy: -118.223243950172 gnorm: 0.000617681966 xtb: 6.5.1 (b24c23e)
Si          -0.37761085908084       -1.42362844728494       -0.76332518078115
O            1.20246411651319       -1.43069157895896       -0.36268356513237
C            2.07369306567651       -2.48636209199301       -0.04190352987196
C            2.87279013243925       -2.16753567954830        1.19721002261968
H            1.48747785331350       -3.39850079620252        0.12384092871072
C            2.97570425217060       -0.87271020822856        1.68252951966389
C            3.56266108635823       -3.18683380273840        1.84450784712173
C            3.76804589579911       -0.59304118969210        2.78247481853571
H            2.42381219769408       -0.08135439861122        1.20106826326489
C            4.35299309909928       -2.90843557590522        2.94388415773629
H            3.47115122110745       -4.20257275807281        1.48756221709677
C            4.46436496689313       -1.60885758810017        3.41187117162804
H            3.84141063800841        0.42316758321508        3.14263258038582
H            4.88375535310543       -3.70817444621456        3.43923763727865
H            5.08652259060590       -1.39209922771017        4.26761031590118
C            3.04150953780566       -2.72953980836036       -1.22171930926665
C            2.30693748422434       -3.02858124575413       -2.43171241167845
H            3.70100182204092       -3.56314733086392       -0.96950664238990
H            3.65215395832030       -1.83505586333698       -1.37653296525768
C            1.64899310330598       -3.23933149819134       -3.40822350790941
H            1.07464315688391       -3.43864609088560       -4.26259170491981
Cl          -1.19961864086684       -1.71754633190973       -2.61305577693457
Cl          -0.89080130405973       -3.34990384073116       -0.00264454336319
O           -1.31453421857913       -0.76724184800117        0.52078060828234
O           -0.15481863198716        0.32258619300736       -1.37704874731463
C           -1.47275844727309        1.59948017960133        0.65318286509875
C           -0.09398206224493        1.81974109313101        0.40967748259631
C            1.84864238990934        1.37035952491435       -0.90308355799763
C           -3.41262900856041        0.20322124886885        0.41147563518410
C           -4.26906190548740        1.23974654185049        0.70769864281239
C           -2.33063001361316        2.64499608192048        1.05320951124897
C           -3.68198642544770        2.47811803613966        1.08591026671910
C            0.66060037304762        2.77028139531301        1.13083280069191
C            1.98239959267716        2.96915367619408        0.86569430692830
C            2.62783100696233        2.24752297983743       -0.16634155081170
H           -1.89479455294360        3.60652403388380        1.26876875231817
H           -4.33104147685440        3.28848610231383        1.37514580574871
H            0.17924346445381        3.29365356342351        1.93993849050377
H            2.56395241160498        3.66103540065298        1.45352230155196
C            4.06195106452238        2.43228984255436       -0.41303453164405
Cl           2.42638506267113        0.57884224423181       -2.29745237775602
N           -2.06558902427475        0.36164362719213        0.46560452733218
N            0.55147748511593        1.15834410097798       -0.61285655703594
Cl          -3.94554548604184       -1.34766399942108       -0.06487612520200
C           -5.73207121000400        1.11727884511847        0.64752740035782
C           -6.47260508262855        2.09685180254471       -0.01191288935072
C           -6.40312173923910        0.06823167187799        1.27102118931534
C           -8.51080952857007        0.96680273910118        0.55294816910459
C           -7.78292865302149       -0.00256132287839        1.22309918231281
C           -7.85145649096661        2.01700114523204       -0.06400220687046
H           -5.95883780498174        2.90937794605553       -0.50465480666586
H           -8.41335918303894        2.77619897277715       -0.58776990991065
H           -9.58802061086039        0.90583696746436        0.51384294839022
H           -8.29322660269833       -0.81793191148913        1.71367752790078
H           -5.84341993535847       -0.67867348891807        1.81118689055953
C            4.59569358728027        3.71731091752654       -0.49011459781534
C            4.91685122523142        1.33704043376439       -0.51787026673931
C            6.79300959001607        2.80697187153274       -0.79904378908957
C            6.27225868864732        1.52644500317055       -0.70783663906989
C            5.95108169464980        3.90119177181665       -0.68838077365563
H            3.93873835377627        4.57174117301744       -0.41667488201091
H            6.35229179328227        4.90157357515748       -0.75656046590063
H            7.85199558485139        2.95184561203521       -0.95099758204148
H            6.92664698002505        0.67056238821718       -0.78011127754990
H            4.52089601859064        0.33885308437620       -0.41528611297237
