65
 energy: -118.224249489650 gnorm: 0.000588852837 xtb: 6.5.1 (b24c23e)
Si           0.40371246343919        1.65656054448586       -0.35488459983571
O           -1.17878455761418        1.56001830284742        0.00452046377826
C           -2.04807560235051        2.34173493829962        0.79348895528775
C           -2.85551432569698        1.37352558836638        1.63372565266270
H           -1.44577289712360        2.98700107124841        1.44891373081698
C           -2.18752745042529        0.29987611786520        2.21504721630365
C           -4.22699615627569        1.48238125520208        1.82329595452144
C           -2.87379127037012       -0.65793726317315        2.93633844033689
H           -1.11725870328074        0.22112753316151        2.09625481174654
C           -4.91337392088527        0.52818260793916        2.55669379228006
H           -4.77738625842876        2.31002623735506        1.40375570256214
C           -4.24391648708112       -0.55079112357289        3.10362499303311
H           -2.33654144963710       -1.48790984353776        3.37184866464579
H           -5.98033855837447        0.62696579544556        2.69202620502136
H           -4.78476762676168       -1.29907640116429        3.66345446049287
C           -2.90207844049624        3.23410615513698       -0.12205993942259
C           -2.05628392800967        4.02045084021622       -0.99666259450650
H           -3.50487620572049        3.90653124160434        0.49269099928637
H           -3.55977366521526        2.60851817440545       -0.73353158068254
C           -1.33226492281626        4.63408036142825       -1.72416694206052
H           -0.69256104307638        5.17643843987619       -2.35337964244460
Cl           1.18029183252310        2.38029053124729       -2.09241538669515
Cl           0.90061957046686        3.32502145258456        0.86874198521043
O            1.38221962181029        0.71898043512770        0.70538502837480
O            0.15094854539621        0.07066802082969       -1.34432038235239
C            1.49263156654700       -1.62089336069351        0.32821256638854
C            0.09977480934847       -1.75554934398226        0.10212746824850
C           -1.87133661734611       -0.99523686338486       -1.00384169392320
C            3.45184981194859       -0.23032494738584        0.26812324134309
C            4.29484549392009       -1.31803623135569        0.30254334835629
C            2.34103258680123       -2.73714848199182        0.47520049467529
C            3.69624863649456       -2.59791328452132        0.46857170608661
C           -0.66251745070474       -2.80370434966723        0.65929920553078
C           -2.00097659261129       -2.90163302797719        0.42467394000098
C           -2.65669774364611       -1.97513883015498       -0.41918538023693
H            1.89191710474364       -3.71547465105104        0.52428940647772
H            4.33929526814895       -3.45772635819705        0.56263430114660
H           -0.16960875227856       -3.49093948343277        1.32672011970529
H           -2.58622547396539       -3.67416894688626        0.89660683643970
C           -4.10007205948327       -2.08341976768972       -0.64921638517245
Cl          -2.46661383871155        0.06869021641531       -2.19093702893609
N            2.10690423695903       -0.37965919039150        0.36578051486850
N           -0.55597050705264       -0.88643388750897       -0.74198968138824
Cl           3.99390515302576        1.37845875578300        0.08006410561672
C            5.75383980110100       -1.20801114776869        0.16873178125098
C            6.42276339026861       -2.05573527676423       -0.71276863177249
C            6.49253378122244       -0.30225270417106        0.92595915296729
C            8.52214622424836       -1.07194582500397       -0.10042346499106
C            7.86678793015934       -0.23776650102081        0.79002438083201
C            7.79601548107160       -1.98254260892501       -0.84997322097222
H            5.85616226879050       -2.75586628784409       -1.30918414174263
H            8.30117032709609       -2.63626790174956       -1.54552216935604
H            9.59487143341970       -1.01476357756802       -0.20814607316206
H            8.42967894106248        0.46658243358948        1.38410328176181
H            5.99113540903553        0.33569099660657        1.63611060506299
C           -4.67438545215816       -3.33103147156512       -0.89001145698050
C           -4.92618013862708       -0.96341955042509       -0.58588212412418
C           -6.85125453973641       -2.33159108498444       -1.01353163018573
C           -6.29031684695204       -1.09004954947983       -0.76326673627282
C           -6.03833578988960       -3.45116651136005       -1.07679017419715
H           -4.04284898696438       -4.20496128853401       -0.95584301163584
H           -6.46910667033330       -4.42190941769724       -1.27321892462227
H           -7.91709009683535       -2.42711939903620       -1.15673483914957
H           -6.92030533750561       -0.21508933902062       -0.70363592475690
H           -4.49866632460161        0.00042903356637       -0.36390475154386
