65
 energy: -118.222431354967 gnorm: 0.000801544713 xtb: 6.5.1 (b24c23e)
Si          -0.00164770189867        1.19275169733292       -0.35091490040388
O           -1.55597384201265        1.00905846919193        0.09114479250264
C           -2.45779988565991        1.78057225451276        0.85743829836282
C           -2.54514607079112        3.19939481600828        0.34365365640891
H           -3.43247922889304        1.29475923089451        0.67824095488711
C           -2.67052029009171        3.37449559402978       -1.03013832081738
C           -2.50758050992654        4.31805230594347        1.16261143849462
C           -2.73416156470030        4.64043759544259       -1.57924896970435
H           -2.69787057419926        2.50624585919396       -1.67219828795908
C           -2.58009904128307        5.58620161375581        0.61214127574365
H           -2.40259095915239        4.21726513764024        2.23085632476434
C           -2.68891412499229        5.75267904509921       -0.75661354123223
H           -2.81547009845422        4.75673432775262       -2.64973058433141
H           -2.53922802316117        6.44932305009655        1.26018334282809
H           -2.73320976110569        6.74447964085753       -1.18165826939519
C           -2.12025399180431        1.64032701510658        2.34843297431959
C           -2.04544591858717        0.23674605715292        2.69267183908069
H           -2.89650670177185        2.12067179395620        2.94792667044656
H           -1.15535346676710        2.11353852972926        2.54151561648331
C           -1.98720530966050       -0.93929823392410        2.90696794176036
H           -1.93739197065026       -1.96099563996532        3.13795543748665
Cl           0.56094723369151        1.89493323526935       -2.18795692244041
Cl           0.46947746798442        2.99159409861948        0.70697653634504
O            1.10574205419771        0.40316595194056        0.70244168282597
O           -0.16875636442352       -0.44337464344460       -1.24013691738404
C            1.50548769894281       -1.91098067111900        0.34282166786462
C            0.12995641862039       -2.23005574020407        0.22551457225284
C           -2.01453316087163       -1.72131941491094       -0.67725168760980
C            3.26095025266470       -0.27789678964207        0.20724369671618
C            4.24026281577141       -1.24496376801828        0.18717644654157
C            2.50003043531537       -2.90843310309019        0.40945173843626
C            3.82379554687096       -2.59564673309568        0.33717760851367
C           -0.43308979502516       -3.37931532470545        0.82013966298884
C           -1.76477443624571       -3.64717612812763        0.71067317976408
C           -2.61073633603739       -2.79016086111591       -0.03053563462958
H            2.18466152936626       -3.93782639940493        0.45226806245262
H            4.57672376210180       -3.36615765006941        0.36972976740567
H            0.20663001002797       -4.00635648127069        1.41885875319076
H           -2.19997868220640       -4.49993312501691        1.20746025774579
C           -4.05350247236662       -3.04336005392597       -0.10133123737695
Cl          -2.86644997424281       -0.75555733672101       -1.78847948568789
N            1.95121962074230       -0.59991231762626        0.35761593957434
N           -0.70334640739175       -1.45339202463680       -0.54939367539665
Cl           3.58961464456617        1.38792100643292        0.02645802194804
C            5.66640299493467       -0.93262177889991        0.01871318060663
C            6.41495039639286       -1.63227714083933       -0.92560070648957
C            6.29826668053858        0.02295576671306        0.81055776645501
C            8.38059944065094       -0.40697507889227       -0.30387823816125
C            7.64684740389494        0.28010004742789        0.64912614511946
C            7.76105199235391       -1.36438592413953       -1.08994365784592
H            5.92914307044437       -2.37002936408019       -1.54747928309333
H            8.32826286053294       -1.90329864283242       -1.83440604747177
H            9.43223767473356       -0.19883331036414       -0.43192241906722
H            8.12788274340181        1.02023027073525        1.27104794210079
H            5.73511907132270        0.54799165055815        1.56585226678559
C           -4.52965375048514       -4.32189811079888       -0.38358391595662
C           -4.96552432620284       -2.02196028739130        0.15675101293721
C           -6.78958486190540       -3.54397767613011       -0.18128576350160
C           -6.32344034173665       -2.27383458024244        0.11726419679353
C           -5.88934970116707       -4.56688016554949       -0.42913886975629
H           -3.82871105081127       -5.11724859400512       -0.59146989274652
H           -6.24814538341046       -5.55895990245832       -0.66020645731912
H           -7.85126766960700       -3.73687535661289       -0.21664427469307
H           -7.02212047099117       -1.47679526587616        0.32341410933940
H           -4.60211759937103       -1.03938844224386        0.41570018219671
