65
 energy: -118.222302531695 gnorm: 0.000898393500 xtb: 6.5.1 (b24c23e)
Si          -0.25283334325277        1.17339479338166        0.90593852425761
O            0.43908617290676        2.03486581741400       -0.26738446057372
C            1.35141626327426        3.10449743517584       -0.24820598153154
C            2.62969013928514        2.67286759876009       -0.92206631620951
H            1.55501756226553        3.39568189355923        0.78981700688316
C            2.58849064066023        1.75126024877221       -1.96044312681932
C            3.85378216047306        3.18474707002111       -0.51351784847070
C            3.75667906425711        1.34501281608368       -2.58047401510685
H            1.63395148132915        1.34599324463918       -2.26110229839324
C            5.02134543170848        2.77988572512518       -1.13661123095131
H            3.88978488619651        3.89371111066444        0.30108184734339
C            4.97549028047195        1.86000082285648       -2.17053949451368
H            3.71586465579166        0.62699910789473       -3.38781733567142
H            5.97040542483642        3.17897726719727       -0.81009566482982
H            5.88800864173575        1.54258172664721       -2.65387725583729
C            0.71450520407556        4.29604723469514       -0.98886592424521
C           -0.48965305852026        4.71305887479310       -0.30232571858000
H            1.43168330167695        5.11967804887339       -1.02782363331779
H            0.46745485193567        3.98561274056946       -2.00744013135915
C           -1.48332896618718        4.99304264269651        0.30242811222322
H           -2.35884125268678        5.25784667362945        0.81561670928760
Cl           0.64830593722716        2.09983202831309        2.61293217419422
Cl          -2.16700835473980        1.41464153578814        1.65372694663384
O           -0.90688674708789        0.21154510936981       -0.55506402407406
O            0.45619936021783       -0.28727170997124        1.45719652984657
C           -1.39111879246181       -1.98282402140127        0.07444913180020
C           -0.00905326415424       -2.25817504055852        0.22683372163858
C            2.22368886029786       -1.41310889771264        0.47482003241452
C           -3.10602078027706       -0.47864839698275       -0.63355156725284
C           -4.10175542628273       -1.41804965310890       -0.43222634766330
C           -2.38613831323112       -2.96306755707045        0.27004902200248
C           -3.70324769241171       -2.68253242567234        0.05818797150540
C            0.54868984549913       -3.51384555087426       -0.09660557775953
C            1.89699157093834       -3.68166115787661       -0.19280030692376
C            2.78276782071751       -2.58759214357664        0.01792733931651
H           -2.08299883177319       -3.92753110224638        0.64216004949419
H           -4.45999767629492       -3.42924420686780        0.23807477338552
H           -0.12156496320474       -4.32112480627958       -0.34152864621578
H            2.31271173233481       -4.63155701360425       -0.48635340850273
C            4.22342050555767       -2.73910776890666       -0.20825323803289
Cl           3.15443072599710       -0.06700741891557        0.97044936048309
N           -1.81328082891140       -0.74333314271822       -0.35532531243048
N            0.88808439659170       -1.28825841651925        0.64550230269660
Cl          -3.41571210533262        1.07466812617107       -1.25156596542653
C           -5.52189499292473       -1.14023518999213       -0.68465429900062
C           -6.45791752032722       -1.44480704287439        0.30219467368264
C           -5.96228100525104       -0.60662513821583       -1.89327257812044
C           -8.23132271191282       -0.66184563131044       -1.10951721758538
C           -7.30881490715326       -0.37170050361230       -2.10099049409891
C           -7.80176376298967       -1.20026381675005        0.09225892146878
H           -6.12166291667908       -1.84798578273806        1.24602836410618
H           -8.51603389124730       -1.42792768191022        0.86957322704664
H           -9.28128380446366       -0.47033817830595       -1.27277887151466
H           -7.64009807787517        0.03988881606675       -3.04283278070084
H           -5.25071759545120       -0.39427857207585       -2.67538126015690
C            4.88528134782923       -3.87404692130869        0.25879969284995
C            4.94837739036069       -1.77403846989942       -0.90563777656129
C            6.95705363534902       -3.06174923905888       -0.63675377452864
C            6.30415619338359       -1.93796891792291       -1.11624569575199
C            6.24249575221214       -4.02972372468478        0.04962868184680
H            4.33654392544171       -4.62144734076903        0.81284274611649
H            6.74578032566439       -4.90757781705306        0.42718257127402
H            8.01765150907592       -3.18377331710098       -0.79779170428572
H            6.85431749632107       -1.18332918353093       -1.65827521332273
H            4.44500908918889       -0.90392460918850       -1.29713893748005
