71
 energy: -124.552982774420 gnorm: 0.000991032830 xtb: 6.5.1 (b24c23e)
Si          -0.04230687472143        1.06935629074577        0.21172050424101
O           -0.65515607775951        2.55787475903513        0.06793750832948
C           -1.64655632253198        3.28667176205208        0.74400099989631
C           -2.65906680078956        3.81847476470459       -0.23735234022306
H           -2.14739450461896        2.64076350901317        1.47460779312961
C           -2.31957415470347        4.02348763699905       -1.56707801419485
C           -3.94225829081940        4.12900865261046        0.19498517469641
C           -3.25349814761811        4.52883223776059       -2.45456687545383
H           -1.32439702446530        3.77169924632497       -1.89947131859096
C           -4.87168479155912        4.64197975520842       -0.69153532450416
H           -4.21197478029011        3.96193266485002        1.22839735232694
C           -4.52924865705892        4.84228479256603       -2.01866077000620
H           -2.98285048257192        4.67972397981528       -3.48944573177355
H           -5.86737732591927        4.88139350079265       -0.34730915411856
H           -5.25739728878712        5.23897957282782       -2.71114779862409
C           -0.95489578029748        4.44569101512367        1.49154025371135
C           -0.01080411854493        3.91585202122576        2.45142821574587
H           -1.71080271653032        5.05176709587104        1.99630172748496
H           -0.42528965091212        5.06438940863306        0.76217351211308
C            0.76682159749977        3.40566119399585        3.20376249850957
H            1.44656891359380        2.98484267230108        3.88257660806618
Cl          -1.38455315180890        0.41736631413003        1.79767375237526
Cl           1.50188482082169        1.74834079587054       -1.12199952804295
O           -0.56001869382974       -0.05480642977853       -0.98040696408649
O            1.06333856147926        0.00902801806364        1.05887017909579
C            0.16691558375229       -2.18237258718056       -0.28294289404395
C            1.53772093330315       -1.74814713205602       -0.40866541236307
C            3.24256116493611       -0.20622851737605        0.29196806453964
C           -2.17314520954584       -1.64205285469676       -0.47685966678651
C           -2.55241071103137       -2.90314871417760       -0.07295976365817
C           -0.18906408919035       -3.47307876883492        0.14892754094815
C           -1.51873267150829       -3.81101624461115        0.25469976561797
C            2.48635088343631       -2.40298555706572       -1.21502077043931
C            3.78192187192817       -1.93916865286821       -1.24793936569952
C            4.19716967024771       -0.82526657709590       -0.48610694150273
H           -1.79285393068657       -4.78821530514938        0.61918515804820
H            4.49731716388682       -2.40080225501432       -1.91012343851529
C            5.58083820614288       -0.34191344405468       -0.56339655920071
Cl           3.58720823490051        1.07979863803434        1.34584108968740
N           -0.86810989285410       -1.31368576036832       -0.59130123960701
N            1.97544054242834       -0.66233442136068        0.32676851514883
Cl          -3.27929234378812       -0.39858370174301       -0.83919996946077
C           -3.95793206127868       -3.30263414952436        0.07331075652078
C           -4.37262691361782       -3.93178087988229        1.24573341886366
C           -4.88421487720676       -3.09268059002888       -0.94531940798675
C           -6.60441572772929       -4.10944758501335        0.38576992917952
C           -6.19704702118011       -3.49605715591976       -0.78729319995181
C           -5.68794538702437       -4.32600229382873        1.40158696951115
H           -3.66390659817725       -4.08325130582430        2.04622902565922
H           -6.00008132033118       -4.80156215843632        2.31961658293184
H           -7.63181757312819       -4.41817417270869        0.50796986944050
H           -6.90634445421184       -3.33126216401843       -1.58475351584569
H           -4.56916130599185       -2.62979011430895       -1.86729396852772
C            6.64023223736808       -1.23737280906888       -0.43751182896639
C            5.85024144894018        1.00412623792526       -0.80023512304619
C            8.20767840498444        0.55136405492838       -0.74276250629439
C            7.15776923230408        1.44346924183094       -0.88914360788516
C            7.94567597309329       -0.79030361816644       -0.52041831714292
H            6.43528702936567       -2.28188174512612       -0.25209063856162
H            8.76101296301017       -1.49015999755972       -0.41038986472086
H            9.22783943584372        0.89945162376273       -0.80681200964566
H            7.35907440092294        2.48754149609423       -1.07652835155284
H            5.03193827335335        1.69259834231056       -0.94284952353281
C            0.84452709966081       -4.45789642834058        0.60607602273738
H            0.93998580169536       -5.27058647020979       -0.11168511060148
H            1.81421433594712       -3.98928737247622        0.73848105267355
H            0.53319199814793       -4.89180418108131        1.55383278423186
C            2.09114990136317       -3.51793541028931       -2.13559924111870
H            2.46731849094527       -3.30636403634729       -3.13416132351612
H            2.53260918781611       -4.45806762240872       -1.81072329642193
H            1.01346636149929       -3.63205011139550       -2.18681294925211
