71
 energy: -124.474300949593 gnorm: 0.000859283501 xtb: 6.5.1 (b24c23e)
Si           0.12628563378123        1.19695021969747        0.95359481644065
O           -1.04374859898440        2.40467937852194        0.40733188739149
C           -1.37950371127741        2.70976909642778       -0.77676235391294
C           -2.58433893576419        3.39406097010635       -1.07387159594530
H           -0.72113633512010        2.42671439148934       -1.59678638514011
C           -3.47073133622975        3.77392652298975       -0.04579623549414
C           -2.91915986077204        3.70325188961259       -2.40642107819731
C           -4.64095813266668        4.43112830339710       -0.34610768753780
H           -3.20420681802936        3.53004213934980        0.97113935625653
C           -4.09421656641177        4.36102522791479       -2.69106662634618
H           -2.24186337477837        3.41665549607984       -3.19714545353013
C           -4.95979998976257        4.72780705203810       -1.66673086407110
H           -5.31621633841157        4.72006465055260        0.44599763152968
H           -4.34712475528311        4.59522252759175       -3.71492500731364
H           -5.87952009206619        5.24419998099506       -1.89738194743474
C           -3.59028287747864        1.28209743082235        2.44537115272668
C           -2.40402323270032        0.78697619575704        2.26613224852573
H           -4.43380905972740        1.00043040887721        1.83331759912669
H           -3.78436367646199        1.99832616284535        3.22758615508523
C           -1.21635826349052        0.33262536178119        2.04399828859173
H           -0.88477157927127       -0.55836773042048        2.56014066797884
Cl           1.63269608566076        1.91346291711136       -0.48432506120600
Cl           0.85237298072087        2.42166927347671        2.51717810734511
O            1.18720830159938       -0.32354576090383        1.38974471458246
O           -0.38722705550736        0.10095989873760       -0.64835074715669
C            1.63886604855587       -1.63824909526488       -0.43960455929217
C            0.25621396086198       -2.09552994124594       -0.33631738587752
C           -2.03576060327364       -1.46107353844623       -0.33904788105557
C            3.33758670932699       -0.31036211363620        0.56418993096107
C            4.25633597754226       -0.68663486152689       -0.40599917722534
C            2.52224569195866       -2.03543817551515       -1.44392845434300
C            3.81218013534803       -1.53645740357429       -1.42643728614600
C           -0.10654906045763       -3.42684604200317       -0.11708896271676
C           -1.44506718437172       -3.74202201240819        0.01939787970967
C           -2.44386175093295       -2.75738643604890       -0.08379885892085
H            4.49949429088157       -1.80736016629982       -2.21265546146716
H           -1.73846850510826       -4.75549022589054        0.24213403557760
C           -3.85866620390923       -3.10590151807955        0.09590598714839
Cl          -3.12003963369137       -0.18089021486744       -0.66660546175475
N            2.06919291904062       -0.76010027149895        0.51578180317073
N           -0.72847671200200       -1.14346623190447       -0.43613902106240
Cl           3.70356303154665        0.73026035496727        1.85465723659907
C            5.63709174381320       -0.18221980591982       -0.40736035550792
C            6.15397630746559        0.38707498019687       -1.56865538824458
C            6.44622164617507       -0.27611242756226        0.72166316090825
C            8.24731771728748        0.77733096390397       -0.46534945440818
C            7.74386852535890        0.19940709214332        0.68829053270377
C            7.44898265129774        0.86950583073576       -1.59336483689105
H            5.52351507085211        0.47868476097335       -2.44036541435154
H            7.83555192443252        1.32265279180328       -2.49415396158308
H            9.25829292260468        1.15584082197906       -0.48502193440572
H            8.36441760856368        0.12161046378479        1.56856329606960
H            6.06073082687117       -0.73441141621902        1.61850695704842
C           -4.40335689270846       -4.19767244992096       -0.57546041135121
C           -4.65998810485523       -2.37641573515212        0.97128007110686
C           -6.52472083800665       -3.80272122003566        0.47111363293796
C           -5.98401919432652       -2.72657102092672        1.15591492556900
C           -5.73061094440735       -4.53820911671305       -0.39281639433109
H           -3.78713097110294       -4.76422177574559       -1.25823510762623
H           -6.14702877343688       -5.37989536535014       -0.92619129645583
H           -7.56088982902019       -4.07036149575096        0.61367271516127
H           -6.59676759572909       -2.15932192497834        1.84038088143386
H           -4.23249527808050       -1.55453402229668        1.52445844709616
C            0.92570203132227       -4.49953752824383        0.04651474405875
H            0.97819901724012       -5.11347150660907       -0.85136766303877
H            1.90825545961680       -4.07978806170923        0.23936263667676
H            0.65015998846920       -5.14888406473886        0.87423920633698
C            2.08449011570894       -2.92558839894454       -2.56588112588230
H            2.42725366660443       -2.51277327241661       -3.51210197518826
H            2.52513901150835       -3.91573481488633       -2.45859566435475
H            1.00356366359792       -3.02306439300437       -2.59696116909044
