71
 energy: -124.552206086924 gnorm: 0.000782353972 xtb: 6.5.1 (b24c23e)
Si          -0.17279679658365        1.05751170526734        0.31668779194972
O           -1.19007639697467        2.21654492491704       -0.24562231075107
C           -1.10125491882746        3.61390256219951       -0.23425259591244
C           -2.28164818080763        4.18482658751121       -0.97912494771904
H           -0.16500610786832        3.91550540001979       -0.72773823190684
C           -3.53944565396565        3.61848233283871       -0.82323261048667
C           -2.13325059734781        5.29766800909244       -1.79510598725984
C           -4.63257438303012        4.15301484105436       -1.48041988694771
H           -3.64818021142361        2.75032427758974       -0.19170547766218
C           -3.22866229039112        5.83663368961320       -2.44655658203561
H           -1.15546862256633        5.74099756508965       -1.92105800419432
C           -4.48000495593673        5.26480795297637       -2.29146430530624
H           -5.60707648551219        3.70288980411945       -1.35741060797001
H           -3.10436412315931        6.70305646936021       -3.07990695607186
H           -5.33404704593058        5.68452606647922       -2.80280147135159
C           -1.09737948880123        4.16836194617339        1.20799361892592
C            0.16538720683088        3.91961192664671        1.86582679975275
H           -1.28648004202883        5.24463604145098        1.17118571393124
H           -1.90134455503770        3.68190392521590        1.76587035458952
C            1.22809173381454        3.69785584996536        2.36975107395248
H            2.15198509664952        3.50939470861916        2.82890726841749
Cl          -1.11977216379891        0.83209775698035        2.15552301041950
Cl           1.55167648381071        1.88609938604583       -0.56787588439292
O           -0.68163741562649       -0.06927049683442       -0.86614699206730
O            0.90119855643997       -0.30091241276004        1.07930246222089
C            0.03076719473648       -2.29163153583123       -0.49338902664597
C            1.39542413917954       -1.85179622727262       -0.58618509406155
C            3.09907717804924       -0.48826648769393        0.39213098930750
C           -2.28476854832764       -1.64746717397165       -0.29752947684412
C           -2.68148483273911       -2.94789730227555       -0.08644874745189
C           -0.34444411758305       -3.63152221006513       -0.28013645444948
C           -1.67064671647991       -3.94099735722496       -0.09033515580491
C            2.34314723696798       -2.36277554400425       -1.49561535093956
C            3.64356803636607       -1.92232274460438       -1.42856646122073
C            4.06524214698080       -0.98696921050977       -0.46049836611247
H           -1.95868338990744       -4.96267658600030        0.09892216258442
H            4.36359767517711       -2.26835908789019       -2.15365547507240
C            5.46369099150560       -0.54707678351081       -0.40652158347793
Cl           3.45491424338080        0.55307663349203        1.68750542121031
N           -0.98607574057364       -1.34686786950023       -0.53335081217730
N            1.81696009648062       -0.88206826473362        0.30007395281288
Cl          -3.35219099080111       -0.32341738494953       -0.25616967960207
C           -4.07650891796367       -3.32325659359546        0.17915855308120
C           -4.36861921297731       -4.16746543555963        1.24893803131899
C           -5.11634654295158       -2.88123931144086       -0.63527779125144
C           -6.70122219498606       -4.09738370633661        0.69642785658602
C           -6.41780228974005       -3.26830995769001       -0.37622119994551
C           -5.67232860763314       -4.54580061753409        1.50789281229500
H           -3.57016915075867       -4.50407001902350        1.89357270179676
H           -5.88697779958280       -5.19113822198186        2.34685172274353
H           -7.71947927274208       -4.39398696724752        0.89871782396213
H           -7.21568661706791       -2.92215219499318       -1.01627475752817
H           -4.89991136138145       -2.24974700182439       -1.48236998756483
C            6.49173169837580       -1.48659090370067       -0.44481056709998
C            5.78305946084235        0.80843107276444       -0.35794669496772
C            8.12256178117456        0.26876323844743       -0.34637888311805
C            7.10533954118149        1.20922583118335       -0.32810919807963
C            7.81217408420321       -1.07958175050619       -0.40868293750549
H            6.24970815981125       -2.53905218734459       -0.48034237758157
H            8.60175436787014       -1.81640733991040       -0.42794870930915
H            9.15440657822008        0.58563153433377       -0.31724108832497
H            7.34404386852066        2.26173772337411       -0.29375628077634
H            4.99268798164159        1.54271328624923       -0.37295875079677
C            0.67576523252641       -4.72057802027789       -0.13750313899518
H            0.70113116018366       -5.33935390925035       -1.03265246666640
H            1.66774027621038       -4.31832557007734        0.04001663038159
H            0.40341359207106       -5.36233539757007        0.69736903168275
C            1.93248089721127       -3.27561054723331       -2.61139787077945
H            2.30750925988031       -2.87789148047366       -3.55251314402284
H            2.36148857288562       -4.26727723139261       -2.48065913646976
H            0.85248121063716       -3.36064300448040       -2.67566626724104
