71
 energy: -124.560396767954 gnorm: 0.000297017687 xtb: 6.5.1 (b24c23e)
Si           0.04120487317675        1.40172828551942       -0.10800677713858
O           -1.50621199921017        1.24327794758043        0.37312342066687
C           -2.29743206041700        2.13328047984065        1.12687000211136
C           -2.57617885324598        3.40962775320707        0.37642041497140
H           -1.77515892082799        2.36346204422862        2.06288892314285
C           -2.76726595156223        3.38376532874163       -0.99750022301044
C           -2.66054945568263        4.61773115799651        1.05387188888645
C           -3.02781247565173        4.55282473356387       -1.68903298520595
H           -2.69013073265205        2.44665845907875       -1.52807036426271
C           -2.92844545251890        5.78520210598399        0.36283108456495
H           -2.49865733153309        4.64295371455448        2.12156110449421
C           -3.11131154572291        5.75537554451991       -1.00947801104332
H           -3.16216906689709        4.52314034746472       -2.76021355721343
H           -2.98439050663545        6.72286216592692        0.89593602213040
H           -3.31138406330521        6.66944550238774       -1.54903921519610
C           -3.62284336622342        1.41732885966096        1.44589764647833
C           -3.38019192274713        0.18270169180831        2.15878028232814
H           -4.24511618579181        2.08221695443322        2.04988997144042
H           -4.14190523731885        1.20864559040153        0.50622465481942
C           -3.13113405933093       -0.84408791214179        2.72040105101211
H           -2.94004399674497       -1.73899482856839        3.23197817715447
Cl           0.68079992422053        2.19823776060874       -1.88596211908147
Cl           0.51509588503031        3.14178831449208        1.05964616696396
O            1.10618233262229        0.50001756353663        0.90820724791080
O           -0.18540117378883       -0.13815607163140       -1.11894006098943
C            1.57959670141158       -1.69440132829269        0.16544622220245
C            0.18113206343614       -2.00161083545611        0.22970421424391
C           -1.99295719530490       -1.50499871934010       -0.62705177961120
C            3.28050812164944        0.00954183029835        0.26901770246102
C            4.26919397546915       -0.88756904568211       -0.07050035666252
C            2.56425126672470       -2.62653557887747       -0.22180773095732
C            3.87432966125585       -2.22400599555102       -0.31972748489021
C           -0.36209021028114       -3.09222001385213        0.94308489191397
C           -1.69616105780115       -3.38219617051019        0.80767481962761
C           -2.54847362229584       -2.61523222156908       -0.01816790126851
H            4.62798879966877       -2.92957820289889       -0.63145495412655
H           -2.12675790731083       -4.19735901528336        1.36856337078551
C           -3.94707935815469       -3.02186413520629       -0.19375679125453
Cl          -2.86504177701136       -0.50550044882770       -1.68911602049850
N            1.99844771816231       -0.39837813770380        0.42559222130065
N           -0.68923920604146       -1.20918580070706       -0.49163862364566
Cl           3.56314091365418        1.67919378011634        0.47872498465837
C            5.67905588199387       -0.49978656891379       -0.21054341434258
C            6.39941186232213       -0.89362397209203       -1.33637794576543
C            6.32811937957801        0.22365026949606        0.78740452116340
C            8.36988584146868        0.16738708284389       -0.47351214452108
C            7.66411058846262        0.55181495408083        0.65464344519176
C            7.73323593058361       -0.55589771778773       -1.46830303788001
H            5.90133718750461       -1.44380495140938       -2.12108463133063
H            8.27791876883620       -0.85676863436232       -2.35103609485691
H            9.41221305035835        0.42937580587023       -0.57654739888401
H            8.15787695171283        1.10938791316259        1.43654387820107
H            5.78729132087014        0.51060134829224        1.67534917983022
C           -4.23459304940653       -4.36076509037001       -0.45910676842050
C           -5.00099541632866       -2.12036778167862       -0.06809883670662
C           -6.58257388049516       -3.87571501922914       -0.49596161096193
C           -6.30690890738221       -2.54732565871823       -0.21711271221367
C           -5.54147118511797       -4.78153412269032       -0.61451842268484
H           -3.42403124711131       -5.06731611391561       -0.56568634525614
H           -5.74886064081037       -5.81952208449767       -0.82940983260686
H           -7.60380792986399       -4.20498703961142       -0.61553354917697
H           -7.11516448090385       -1.83929114351358       -0.11015391710176
H           -4.79500609560087       -1.09379199608414        0.18334720706188
C            2.20603867032543       -4.01941289944998       -0.64542596433790
H            2.47768944598835       -4.73837425684765        0.12505012187124
H            1.14543976934425       -4.11310646912162       -0.85505698780424
H            2.76398523854838       -4.27542239209618       -1.54342699447789
C            0.46410317175024       -3.86079420278963        1.93013250513599
H           -0.04530422806243       -3.86578325190067        2.89223465895160
H            0.58189914220675       -4.89675868211785        1.61851838584083
H            1.44396331475798       -3.41343277840064        2.06096317586965
