71
 energy: -124.553100052743 gnorm: 0.000834915899 xtb: 6.5.1 (b24c23e)
Si          -0.12154724651627        1.03555159614370        0.13536496977611
O           -0.70701620497613        2.53396303888597        0.00700405962905
C           -1.61166134008951        3.30489807424947        0.75470601687787
C           -2.59771372611085        3.97653764857818       -0.16516065357350
H           -2.14589367514859        2.66384228558325        1.46536673488830
C           -2.25893806417347        4.25972015460264       -1.48090167920925
C           -3.85101240633685        4.34039865577884        0.31060127331280
C           -3.16489739659586        4.89433561688382       -2.31221504434308
H           -1.28729613578980        3.96598745424679       -1.84701770529940
C           -4.75208972046573        4.98228154740690       -0.51952546460419
H           -4.12051327665279        4.11388652186071        1.33265144039370
C           -4.41101855404369        5.25992024031479       -1.83291439190586
H           -2.89587402281989        5.10536394516653       -3.33695514622150
H           -5.72506515698606        5.26203765053300       -0.14230756989537
H           -5.11745049783844        5.75723826160142       -2.48147884000360
C           -0.80160964641409        4.35924355518814        1.53873632077323
C            0.12271870918288        3.70438713862128        2.43824322521691
H           -1.48891589973570        4.99861170597886        2.09820375861733
H           -0.24365128967256        4.97034239242857        0.82387228575768
C            0.87834723046968        3.10008518476467        3.14207417045530
H            1.54447053007970        2.59407002342531        3.77490302124128
Cl          -1.50942172543713        0.38617709006136        1.69571364309058
Cl           1.39555095610974        1.67467017362823       -1.25885106914459
O           -0.59821714603865       -0.14444078271909       -1.01856640775821
O            0.99767630083298        0.06085212575400        1.04313421799705
C            0.15704115038638       -2.21801813225763       -0.20248784431893
C            1.52128274816633       -1.76228235598206       -0.32893117048285
C            3.18259566603411       -0.13862339878846        0.29064444587305
C           -2.18777698251665       -1.74975353500550       -0.49367379164901
C           -2.54854084683899       -2.99785507700889       -0.03607671793262
C           -0.18089614304806       -3.49123702776818        0.29111166177163
C           -1.50468929271494       -3.85765303657226        0.37630733471883
C            2.49307819492619       -2.43975624107779       -1.08755573566555
C            3.77695961901368       -1.94549249293721       -1.14014265724520
C            4.15683583512380       -0.77538805297556       -0.44737921379329
H           -1.76637954560352       -4.81968586023051        0.78744827809093
H            4.50877934472764       -2.42691656045573       -1.76948680694867
C            5.52392356184457       -0.25211819996057       -0.55694992391498
Cl           3.48654109985073        1.21875379502739        1.26396233283510
N           -0.88870151879325       -1.39270492136954       -0.58431872442575
N            1.92879282889165       -0.62901591916393        0.35059650548397
Cl          -3.31239720934816       -0.55886913499795       -0.95610539244986
C           -3.94870331449197       -3.42579215273833        0.07936629012091
C           -4.39659493655343       -3.99532250035870        1.26963261894673
C           -4.83624596664963       -3.29967024116299       -0.98648163697223
C           -6.58581480197238       -4.28066869351645        0.33264940093029
C           -6.14463882860109       -3.72693202693716       -0.85775586832395
C           -5.70785668739986       -4.41322384759720        1.39568280098152
H           -3.71813669873004       -4.08084676326529        2.10527740404459
H           -6.04713284403744       -4.84148616621238        2.32725930041655
H           -7.60995810491938       -4.60798514780805        0.43171429237000
H           -6.82375157943278       -3.62767746038534       -1.69150095166775
H           -4.49372035305859       -2.88299432298840       -1.92071709526360
C            6.61383960463151       -1.09879695061194       -0.37064602653505
C            5.74550884439937        1.08311218592795       -0.88653087518934
C            8.11725346273100        0.71906970103362       -0.80097346298169
C            7.03668947322796        1.56127825811428       -1.00753363241216
C            7.90276157072282       -0.61237897496760       -0.48571762142151
H            6.44549670590862       -2.13460742435943       -0.11351776367921
H            8.74234504757028       -1.27347321820832       -0.32847424453610
H            9.12450484642682        1.09781618371696       -0.89045162045384
H            7.20122009744714        2.59625060089021       -1.26735645182172
H            4.90313148644278        1.73024195843481       -1.07531860225617
C            0.86220859958963       -4.42184462657844        0.83246127338108
H            0.99269282225098       -5.27509630598712        0.16936137674219
H            1.81796578012706       -3.92360836750035        0.95785256709985
H            0.53688867345170       -4.80321867199332        1.79800828868776
C            2.13462069279829       -3.61701783834574       -1.94339077503475
H            2.52292340197440       -3.45972255426784       -2.94744177093398
H            2.58885590241113       -4.52618531334082       -1.55383599595875
H            1.06021499881252       -3.75615646642216       -2.00358996427750
