71
 energy: -124.558043027270 gnorm: 0.000469223860 xtb: 6.5.1 (b24c23e)
Si          -0.13640853631043        1.71840183130494        1.12558879061431
O            0.55646314911607        2.66666301529514        0.00716470174600
C            0.36825637377846        2.73308969355997       -1.39318845893616
C            1.01081669865973        1.55793081499020       -2.08353248003642
H           -0.70615161303443        2.73533913063458       -1.60437896029409
C            2.32194333866473        1.20872539126024       -1.78918584593666
C            0.30002093440548        0.80174170674420       -3.00606893444279
C            2.91395009209049        0.12181276176336       -2.40837391729348
H            2.87221671045342        1.79104454024622       -1.06460990560815
C            0.88579560365356       -0.29418254683325       -3.61331650909736
H           -0.72135085443513        1.06777098148124       -3.23628446038080
C            2.19451576391053       -0.63532128190237       -3.31640507328882
H            3.93804281324036       -0.13807933658558       -2.18542918404261
H            0.31986130041348       -0.88268422583214       -4.32125744347496
H            2.65614302394124       -1.48723985296720       -3.79419335762815
C            0.98277684625302        4.05795178222443       -1.87793836757728
C            0.19806345591502        5.18380210036448       -1.41841448892977
H            1.02168025992138        4.05382762192962       -2.97093606438377
H            1.99801204214035        4.13950884990411       -1.48377402607574
C           -0.48124564819613        6.08718976434767       -1.02700976315291
H           -1.05955187299915        6.89031988541035       -0.68007498736777
Cl           0.78549248370594        2.82250945394303        2.65708107935625
Cl          -2.03166677885743        1.80880165426119        1.95243487999432
O           -0.81786813866810        0.68230910851685       -0.31964938117483
O            0.56816044681217        0.25964714332836        1.71852190341322
C           -0.97285338587821       -1.55131721061900        0.30807426759947
C            0.46073912246069       -1.61378954980747        0.27618376815181
C            2.55804078816563       -0.62646093892836        0.93736559301976
C           -2.91482990294396       -0.27837056898796       -0.25748689381906
C           -3.75984552491696       -1.32848386072786        0.04833467936281
C           -1.80333481988418       -2.62590562034524        0.69066034449583
C           -3.16613384736549       -2.49227701112340        0.58127856742607
C            1.17549009007808       -2.60641764358855       -0.42528049339375
C            2.54724799555886       -2.59960719422189       -0.39897596161419
C            3.28424283585113       -1.60850437752250        0.30017075926103
H           -3.80970600219377       -3.29727350478238        0.89991401683587
H            3.09399411982116       -3.32967262485728       -0.97394611654283
C            4.74967012526838       -1.67413531849455        0.31550111873524
Cl           3.26353100141692        0.62931195461276        1.85568720657064
N           -1.58508387424119       -0.37804147968487       -0.08176448412954
N            1.20471753384165       -0.64844314873705        0.93658624113205
Cl          -3.47217494837460        1.21429712372207       -0.86226719492205
C           -5.21665900275058       -1.24641647288315       -0.11608314599256
C           -6.04852473454122       -1.61182413711186        0.94057223828787
C           -5.79001747850652       -0.83366214709311       -1.31646152794714
C           -7.98480506352282       -1.13008643124374       -0.39030674596722
C           -7.16480445399782       -0.77842776347437       -1.44960455379142
C           -7.42220449472899       -1.54743119245346        0.80466447417676
H           -5.61122320229867       -1.91853736338829        1.87913145798961
H           -8.05649039616825       -1.82043739171958        1.63497044656068
H           -9.05814357995110       -1.07954748216422       -0.49546641528198
H           -7.59868215588746       -0.45956499063244       -2.38574782846016
H           -5.15640412315189       -0.57376627594523       -2.15016645421671
C            5.36774035220250       -2.90857580208895        0.51948506365651
C            5.55033745597709       -0.55331946244269        0.10220106387775
C            7.53129484949377       -1.89472918599349        0.31584965504146
C            6.92791845834752       -0.66672579371803        0.10068659678291
C            6.74516570767800       -3.01560323557641        0.52580503194910
H            4.75973236886164       -3.78286411694980        0.70034458721355
H            7.20753617075689       -3.97661342029414        0.69688122247165
H            8.60763382205179       -1.97819960968382        0.31913594288619
H            7.53504947270250        0.20967128392159       -0.07120056367404
H            5.09425083592690        0.40586306899747       -0.08043480209056
C            0.47365051446796       -3.60035348396310       -1.30070328469003
H            0.51423671859739       -4.59674813473184       -0.86477427834137
H           -0.56444936939401       -3.32853175738831       -1.46170028523198
H            0.97688922101254       -3.64117837003919       -2.26430071261329
C           -1.23449819671526       -3.86150869246060        1.31988277530641
H           -1.76410135379629       -4.06487595605014        2.24874368284288
H           -1.36975292774138       -4.72422382157018        0.67034342286486
H           -0.17824661615860       -3.74539187515361        1.54021277222133
