71
 energy: -124.558843376773 gnorm: 0.000637078621 xtb: 6.5.1 (b24c23e)
Si          -0.35661589754124       -1.53843640515918       -0.59416169169003
O            1.24290571023247       -1.56026222665806       -0.28768323769515
C            2.11203683557616       -2.61261422183163        0.04623582227847
C            3.03074874774043       -2.21408132081548        1.17527188100197
H            1.52013941991979       -3.48518881391364        0.35114843411255
C            3.08208455866300       -0.91183335784772        1.64839388975318
C            3.86881153791923       -3.16889404666445        1.74212485624345
C            3.97462923496520       -0.55843827312722        2.64583008635415
H            2.41146302946815       -0.17389239793771        1.23867647998731
C            4.75791309692632       -2.81726267435915        2.74006183701097
H            3.81572447152659       -4.19445661997093        1.40614107710339
C            4.82147586043062       -1.50754840434727        3.18817391695611
H            4.00753134666379        0.46372716983922        2.99473600775246
H            5.40383533779442       -3.56798458554824        3.17129182305620
H            5.52211620861112       -1.23279174004847        3.96274283939881
C            2.94523551302124       -2.99590630283052       -1.19705634148027
C            2.07956275607328       -3.42426925473990       -2.27430977998563
H            3.63267578538398       -3.80191730035917       -0.93165479292395
H            3.52979006927550       -2.12914120723666       -1.51845930077992
C            1.31871016713976       -3.74760691665964       -3.13898666152538
H            0.65594398508648       -4.04676158541392       -3.89452939593885
Cl          -1.37001197741320       -1.95536811359299       -2.32744308444581
Cl          -0.84545400452606       -3.40160232188142        0.34777810043585
O           -1.16284954437047       -0.71841413179714        0.69428909024463
O           -0.12685583039369        0.12392867270983       -1.40473210454168
C           -1.50521392441597        1.59599204530842        0.35090671476690
C           -0.08524961640898        1.76751231207315        0.24529030198037
C            1.88441780690319        1.19372491668486       -0.98479334813535
C           -3.34277703812561        0.04034685088653        0.44978224061740
C           -4.26959635484468        1.05746102739446        0.38516308990340
C           -2.42977410773522        2.65436380974834        0.25199956460844
C           -3.77623273245922        2.38015649193700        0.28380223911664
C            0.67695011815689        2.65649724844445        1.03300332602698
C            2.01919405898969        2.79407143054242        0.77830144019981
C            2.66061175980628        2.07878790680118       -0.25804016168859
H           -4.48767762240599        3.18514120247707        0.19006076726035
H            2.62035446723505        3.43385713079862        1.40534543296330
C            4.09841095316280        2.25757832752851       -0.48754381503288
Cl           2.47136009436848        0.33256177476732       -2.33231170373302
N           -2.01641893296465        0.31293301683031        0.48099503352873
N            0.57835718215565        1.02744901462403       -0.71417765940077
Cl          -3.76780265015547       -1.61150347158337        0.45630743755605
C           -5.71790405210566        0.81150221346574        0.37949323226101
C           -6.52222087828673        1.43259550196170       -0.57378756652804
C           -6.31399501302496       -0.00464330614007        1.33802064266649
C           -8.47341620878064        0.41080329414516        0.37546057869677
C           -7.68224329035086       -0.20014064906347        1.33428569970494
C           -7.88908026725640        1.22732696298202       -0.57837451962416
H           -6.06705435901061        2.05696328891448       -1.32845137911034
H           -8.50069038426926        1.70526157479692       -1.32933573410224
H           -9.54136049609951        0.25218812503775        0.37222868912492
H           -8.13394806149253       -0.83224310636002        2.08424724205431
H           -5.70413309083777       -0.46968389928988        2.09642717739033
C            4.63293484350262        3.54317819876793       -0.55306210878439
C            4.95552316313794        1.16334579483326       -0.58280644151498
C            6.83494500411736        2.63593252184438       -0.83261122999521
C            6.31344004644607        1.35501713142134       -0.75218517581324
C            5.99061338845040        3.72924216574513       -0.73137291192571
H            3.97416366792113        4.39680817356087       -0.48424789940012
H            6.39189500677467        4.73029502375165       -0.79044141767828
H            7.89603742040472        2.78203941590339       -0.96826177882574
H            6.96948855597481        0.49971014016850       -0.81597717144349
H            4.56009792245832        0.16441748793940       -0.48753010694549
C            0.07848373699678        3.35161788902181        2.21831441179619
H            0.03245427014809        4.42677161389833        2.05584118411231
H           -0.91857671617856        2.98103796671998        2.43304164754452
H            0.70906662488725        3.17934151199278        3.08863438113040
C           -1.98727087325094        4.06310274828038       -0.00722342198428
H           -2.62647592500874        4.50532232201661       -0.76818680735659
H           -2.08238076441779        4.66805514823175        0.89247664883308
H           -0.95851015028035        4.10180709039388       -0.35029151550241
