71
 energy: -116.483449784997 gnorm: 0.000581573511 xtb: 6.5.1 (b24c23e)
Si           0.20555865656847        1.53083781224443       -0.94679351155132
O           -1.36355125521231        1.62032620127518       -0.50614215981594
C           -2.03950750154002        2.54776154774534        0.31626868724659
C           -1.76197345841143        2.21232522164597        1.75972707389789
H           -1.67464707136815        3.55609513061236        0.09216467154955
C           -2.00601300891348        0.92591993053009        2.22372315990591
C           -1.20875035062400        3.15049071699773        2.61868373848966
C           -1.70170217554670        0.58061310552005        3.52737681555374
H           -2.42540514883699        0.18843971324593        1.55468319893390
C           -0.91178753926067        2.80666051500386        3.92615591184615
H           -0.99586097847040        4.14431097162160        2.25531789254243
C           -1.15570208386046        1.52258300286661        4.38274848317943
H           -1.88909936638825       -0.42588070248816        3.87436657265170
H           -0.47856138856628        3.54193387140220        4.58801617383875
H           -0.91542924564755        1.25404205127300        5.40130190213521
C           -3.54151161573695        2.46503030269565       -0.00517514134693
C           -3.78163655922019        2.79900807212685       -1.39288812942804
H           -4.07608761021731        3.16280451374792        0.64423177004748
H           -3.90275522599730        1.45162646613680        0.19080582767319
C           -3.92022128954960        3.05706202930023       -2.55298817841078
H           -4.06550278035237        3.29803995847479       -3.56319058565263
Cl           0.89064343855950        1.79557962107035       -2.86406587685478
Cl           0.78565066435076        3.49570046481819       -0.28758050521611
O            1.25292803657185        0.95997829352232        0.27031405163309
O           -0.08571109452542       -0.18599752048237       -1.48730960742506
C            1.29806511553302       -1.38572287771385        0.57364036279947
C           -0.09916152510003       -1.56192182375035        0.40406638300277
C           -2.06655006172223       -1.23983187289053       -0.93848531659785
C            3.28786852675409       -0.11655171416512        0.06967427179800
C            4.08967516696050       -1.20165176250752        0.36794368593158
C            2.12267200755168       -2.43476728921429        1.03504533005514
C            3.47811007264511       -2.34992589397083        0.94031710045135
C           -0.85147111704594       -2.39427475113281        1.25942328892132
C           -2.17733460471145       -2.61259978491497        1.03534689493555
C           -2.80940043564795       -2.05539648687479       -0.10111217885573
H            1.65344395227626       -3.33921475285946        1.38573224478287
H            4.10178825013466       -3.17519836286106        1.24442423953839
H           -0.36237374599030       -2.81190862208830        2.12375101424978
H           -2.75766982696006       -3.22539828416627        1.70738292434132
C           -4.23266628212393       -2.35212933725127       -0.33194705608159
C           -2.60868780389827       -0.57997935795436       -2.15603224676921
N            1.94993428649827       -0.21383928046761        0.23949072515249
N           -0.77087362900936       -0.99695888701372       -0.65734664685818
C            3.80075511170508        1.21680530146158       -0.34719297865220
C            5.53842447771805       -1.20560781140908        0.13298936242312
C            6.06622914126613       -0.83012935510393       -1.10206618803069
C            6.40941848641224       -1.63367665105479        1.13365680842731
C            8.28817267631043       -1.28562509166776       -0.31693504837964
C            7.77292885552909       -1.66755221738608        0.91077355712176
C            7.43004537595784       -0.87105893338954       -1.32235281239069
H            5.39982112279927       -0.53017219214172       -1.89670224091650
H            7.82516199379122       -0.58172208760426       -2.28490319146758
H            9.35337683218837       -1.31423430613113       -0.49038224629237
H            8.43703425932490       -1.99199125892162        1.69846090790439
H            6.01330454360466       -1.91768895076830        2.09788279396725
C           -4.67215678979139       -2.93723213596467       -1.51725933968549
C           -5.15963019260348       -2.08691176421090        0.67339562256198
C           -6.92761344195032       -2.95250491774732       -0.69644949079696
C           -6.49800390365908       -2.37954439857530        0.48891996225092
C           -6.01059528930538       -3.23450017628801       -1.69547877812165
H           -3.95682841604151       -3.18026387098920       -2.28911083010609
H           -6.33901675781934       -3.69199914944627       -2.61702115779704
H           -7.97259352080141       -3.18279116480988       -0.83942410738296
H           -7.20801758369357       -2.15992005674846        1.27255090657251
H           -4.82773811399613       -1.63299532487729        1.59659671679642
H            3.36051462430773        1.99299492330587        0.27839473949934
H            4.88228294330086        1.25807942913810       -0.27259962965320
H            3.49613955127667        1.43371732857429       -1.37193984629413
H           -2.45705664780315        0.49612922281965       -2.08617693112009
H           -2.05807858437763       -0.91938966802417       -3.03273516377613
H           -3.66647714760161       -0.78521087114739       -2.27742865288318
