71
 energy: -116.483757788966 gnorm: 0.000361210997 xtb: 6.5.1 (b24c23e)
Si           0.08747009006502        1.34836267324301       -0.28785076143588
O           -1.44025973469783        1.11518489836445        0.24001241753341
C           -2.20288288201421        1.84382250470226        1.17072287758054
C           -2.73738386928946        3.13045886402641        0.59503504961376
H           -1.57718876187118        2.07506314689238        2.04092325429452
C           -2.99498384658830        3.25840167943629       -0.76121518850756
C           -2.99438864504824        4.20343404492449        1.43860447092058
C           -3.49427255534659        4.44399190603126       -1.27059029543282
H           -2.78245042234866        2.43559908798975       -1.42752299327877
C           -3.49977318844455        5.38548513061402        0.93091693110853
H           -2.78132921071008        4.11336630832793        2.49400504070446
C           -3.75082152060784        5.50865127448416       -0.42553520372992
H           -3.67838801145668        4.53493962556383       -2.33086534692537
H           -3.68904604984379        6.21679014766043        1.59402554731960
H           -4.13752413894916        6.43542486820714       -0.82302649701887
C           -3.36568804384334        0.93370922332925        1.61653481749978
C           -2.85864057213358       -0.22933192783794        2.31067419854851
H           -4.02416642546308        1.50160644869262        2.27827545726995
H           -3.93267503290146        0.62026664776515        0.73598424812259
C           -2.38219051159331       -1.16851050365591        2.87901796910798
H           -1.98433236280276       -1.99329292315025        3.39027967815735
Cl           0.56573806181394        2.13299469082117       -2.12575348335052
Cl           0.45069077880458        3.19194753688829        0.77678487967537
O            1.27847628844805        0.67534387049934        0.72359583717481
O           -0.02041632726995       -0.22613219780049       -1.19130775944364
C            1.69032087321167       -1.63973388105994        0.45605765232590
C            0.32515601770586       -1.99405396962461        0.30536818181030
C           -1.77093145827151       -1.68786757986324       -0.82357795947586
C            3.42993534112503        0.01534635020599        0.20072297923195
C            4.40400399768498       -0.96384632139436        0.21617603578767
C            2.69356830133544       -2.61902929757040        0.62717459139036
C            4.01147911533711       -2.29632976002525        0.51782908360561
C           -0.22440573618680       -3.12087598760536        0.95380180089536
C           -1.51709513841545       -3.49318500703939        0.74029030362847
C           -2.31460982806439       -2.78917196065840       -0.18949781363098
H            2.39139423914247       -3.64392221581561        0.76618318024078
H            4.77151839905913       -3.05646853739429        0.60174163060651
H            0.39187332717602       -3.65161946965289        1.66086266441470
H           -1.94343533081773       -4.33794446549063        1.25862861765272
C           -3.69355700886671       -3.24467011970044       -0.43297315944037
C           -2.50315323582866       -0.86109917397046       -1.82051268307805
N            2.13597180136857       -0.33245790459076        0.38672285303620
N           -0.50796815574525       -1.30759067197352       -0.54824457151753
C            3.70731759021184        1.47273448880201        0.08444553872535
C            5.82016043202859       -0.67715731137004       -0.04241713723326
C            6.21448237858317        0.04260174228357       -1.16969150266238
C            6.80008918933639       -1.16241432784649        0.82206984141095
C            8.51917622332115       -0.19484985600388       -0.54271660480394
C            8.13767425897637       -0.91729026029033        0.57585554053020
C            7.55379973517068        0.27960396118804       -1.41558848292417
H            5.46712314131794        0.39440452958379       -1.86479175430620
H            7.84614148919078        0.83495289294462       -2.29443662397444
H            9.56450259568786       -0.00512297559183       -0.73481692414410
H            8.88597858772913       -1.28986039387498        1.25989824458403
H            6.50550786046865       -1.71332756406903        1.70349894872364
C           -4.11659249743189       -3.63562104947270       -1.70088636473108
C           -4.58522289493995       -3.32509202921547        0.63343278265095
C           -6.29260244004486       -4.15590134819292       -0.83334748614430
C           -5.87780191365483       -3.77225447703063        0.43141395648319
C           -5.40828851725032       -4.08904839785585       -1.89717730659236
H           -3.42279690367755       -3.60150666749196       -2.52820065179282
H           -5.72494964954573       -4.39435617121655       -2.88362552586756
H           -7.30136464412419       -4.50779746289942       -0.98932033519278
H           -6.56459584158369       -3.82106948603833        1.26349226020821
H           -4.26259332634684       -3.00760560064455        1.61426467769388
H            3.18963985045700        2.01301797880725        0.87657487365550
H            4.77226854519517        1.67157704627971        0.14160555994388
H            3.31477170356146        1.85533083290404       -0.85855508487001
H           -3.53191678513313       -1.18999782418734       -1.92156476405871
H           -2.47678365551930        0.17875817183596       -1.50385817697935
H           -1.99828713883790       -0.91185249413321       -2.78513703132551
