71
 energy: -116.477685974748 gnorm: 0.000912013845 xtb: 6.5.1 (b24c23e)
Si          -0.22025386797518        0.84001123031577        0.48488552907172
O           -0.87420262461173        2.27571659090040        0.82188625953321
C           -0.71535347373768        3.58702759183622        0.34626214690646
C           -1.97914926712519        4.04430861367277       -0.33748990838643
H            0.12243867799798        3.62929282968794       -0.35882490942382
C           -3.20180382947765        3.46901648252853       -0.02156128055119
C           -1.92851001053027        5.06625158721459       -1.27700528104402
C           -4.35888448143246        3.90550700060390       -0.64241392301796
H           -3.23415454202123        2.67348825168346        0.70706067409351
C           -3.08714914296269        5.50739394501412       -1.89002054938478
H           -0.97690293795492        5.51158346880458       -1.53102418694657
C           -4.30476514517974        4.92708328645860       -1.57488653739217
H           -5.30558438421031        3.44809208516223       -0.39433110392305
H           -3.03965383494308        6.30285301947618       -2.61946691916882
H           -5.20822012036013        5.26984438014477       -2.05769832166084
C           -0.40083688639369        4.49344883923736        1.55290839852849
C            0.88355793883944        4.15172749906714        2.12367834004394
H           -0.39927258790724        5.53671558883325        1.22739384077061
H           -1.18319488264067        4.35324438753165        2.30327486331354
C            1.94764502281279        3.81904697763056        2.55887471122654
H            2.87932667186240        3.56192055107396        2.96709964066034
Cl          -1.52691512535308        0.05831842268762        2.00475389321651
Cl           1.25949034796447        1.64537151296887       -0.95162687791470
O           -0.78189505863068       -0.14482150617631       -0.78820173007061
O            0.94119772746120       -0.21219419767245        1.17873211110618
C            0.06581951009053       -2.31448840072256       -0.45533107034583
C            1.42503710352150       -1.88671479474628       -0.38546736459362
C            3.13639371126620       -0.40935907783607        0.45939749738599
C           -2.30601043427503       -1.86618822801679       -0.49538223927610
C           -2.59720454092601       -3.21407439323552       -0.39633847381472
C           -0.23544628177235       -3.69260585372773       -0.47855737783915
C           -1.52266240138034       -4.13690906634813       -0.43854821963248
C            2.43458258657764       -2.60184430687308       -1.06347722440440
C            3.73551999912579       -2.19814067355620       -1.02640717061122
C            4.11247284858676       -1.05945792600873       -0.27242450175265
H            0.58364562757439       -4.39191809099507       -0.44246015272781
H           -1.73739389023628       -5.19258011584633       -0.39302752792066
H            2.13992747010206       -3.43602082992741       -1.67888224441756
H            4.48740792754538       -2.71809040278357       -1.59850862562017
C            5.50783497790127       -0.60432532984628       -0.30138467819750
C            3.40934075176857        0.69627559948939        1.41708843693362
N           -1.01940763129382       -1.46472269756811       -0.54443990373188
N            1.85847221139536       -0.82996536245841        0.38648334923835
C           -3.33848448185974       -0.80590990730059       -0.64396371067153
C           -3.96823106955333       -3.71318017860848       -0.23612478805199
C           -4.80627812171506       -3.17823725366781        0.74185343171557
C           -4.43206213833269       -4.76703711842344       -1.02097960951889
C           -6.54069402775953       -4.71805600074978        0.12164777051754
C           -5.71151132838908       -5.26045763801039       -0.84621652257785
C           -6.08207594348078       -3.68020442476770        0.91690720167033
H           -4.43818302896425       -2.38920202483733        1.37953218714571
H           -6.72080432460964       -3.26284055601433        1.68111044556361
H           -7.53881136587764       -5.10648316269507        0.25878658413855
H           -6.06329859522762       -6.07161602374612       -1.46679899343708
H           -3.79178590909928       -5.18445667918212       -1.78476543529572
C            6.54753946145319       -1.51274474232789       -0.11283608177869
C            5.81540817993878        0.72958954119305       -0.56640590384172
C            8.16009587126972        0.23642584076852       -0.42011837686297
C            7.13291966850489        1.14327715857586       -0.62532416065857
C            7.86334336604976       -1.09243566484089       -0.16587231724103
H            6.31828556926164       -2.54755896121383        0.09736805217705
H            8.66067756974855       -1.80391356526521       -0.00825097814275
H            9.18843926518465        0.56285100371881       -0.46330971383733
H            7.36010267177780        2.17772238455433       -0.83656194268296
H            5.01577447411570        1.42965141185139       -0.75427144965853
H           -3.04450233437451       -0.11361642195878       -1.43141836776717
H           -4.30538613280768       -1.24135361208294       -0.87448968389770
H           -3.40414771578819       -0.23581880772689        0.28274178267276
H            3.04489631714198        1.63866951736530        1.00714698544949
H            2.86356446544903        0.51554634496565        2.34261976698678
H            4.47312490886764        0.77289805274550        1.61968543961201
