71
 energy: -116.476177412477 gnorm: 0.000927205635 xtb: 6.5.1 (b24c23e)
Si          -0.02419164947290        0.94777031062719        0.25409418550057
O           -0.89680908531457        2.25939222773811       -0.18332540628343
C           -1.56861101854451        3.24416480879482        0.54919919822248
C           -2.65086174332809        3.85770415701947       -0.30158982271008
H           -2.00896125436149        2.79083319943770        1.44741104492237
C           -2.46117157260530        4.01484947251734       -1.66764757058826
C           -3.83203684961009        4.30097936683988        0.27812734563834
C           -3.44172116147736        4.60543239067737       -2.44442736683895
H           -1.54528206277710        3.65714297423508       -2.11240538969096
C           -4.80928235617722        4.89731490595548       -0.49877753786399
H           -3.98491607409126        4.17492845337401        1.34066512029862
C           -4.61593234665093        5.05098612398172       -1.86134042563028
H           -3.28811078846931        4.72140985327642       -3.50745874427029
H           -5.72573943633815        5.23974052282741       -0.04043850635192
H           -5.38047789115426        5.51496327896671       -2.46728305514209
C           -0.56868791516322        4.33957886675503        0.98327394194934
C            0.42279104853301        3.79842128552062        1.88457410127817
H           -1.11628147496285        5.14966272528050        1.47117731611268
H           -0.07256841974293        4.72794985080528        0.08970078221214
C            1.23400222796211        3.29029844272311        2.60339938501275
H            1.94287398840376        2.88076587508679        3.25853752511814
Cl          -1.13324105615027        0.56246281109755        2.04287795835112
Cl           1.59039089918369        1.68030193397205       -0.94126091845511
O           -0.59802387443729       -0.16367275542367       -0.89654954051404
O            1.06031297961194       -0.22304677915151        1.04032442558817
C            0.20918899973822       -2.34542020419665       -0.51810069411698
C            1.57296281545218       -1.94363585249454       -0.45192528963740
C            3.28134384246555       -0.50231682344131        0.44139054654230
C           -2.14404212588507       -1.81593146035311       -0.40702232992137
C           -2.47236719203095       -3.15335193976697       -0.29025446795072
C           -0.13831499176904       -3.71323523389788       -0.54078659054152
C           -1.43512370807043       -4.11284950823422       -0.42608461693537
C            2.58375642861475       -2.68242999768405       -1.10170823377051
C            3.89046575102165       -2.30276830028653       -1.02815173810967
C            4.26614325708628       -1.17711495891248       -0.25829508905757
H            0.65672767175807       -4.44014454318746       -0.56594203666907
H           -1.68468705331610       -5.16099388627554       -0.38564107718789
H            2.28933815594760       -3.51628652167258       -1.71742430962239
H            4.64941982020161       -2.83937500300399       -1.57503550417059
C            5.67015564933178       -0.74853576515980       -0.23880675887817
C            3.55922572364488        0.57454100241725        1.43014710317846
N           -0.85043170148040       -1.45853967246537       -0.55638673115297
N            1.99550240817243       -0.88157989807779        0.31571904084239
C           -3.14528189342252       -0.71701094588243       -0.47172338571643
C           -3.84450740452085       -3.60699899066433       -0.03515790087851
C           -4.59935794886056       -3.04860965390353        0.99627865089815
C           -4.39720168733090       -4.63895146155324       -0.79168752111253
C           -6.42526425884101       -4.52010327565878        0.48447721642249
C           -5.67971103235217       -5.08657736367599       -0.53640883825175
C           -5.87881481216440       -3.50421691364547        1.25180892168914
H           -4.16662874768609       -2.27495832515866        1.61194690627005
H           -6.45161690253625       -3.06689306949236        2.05628846354280
H           -7.42637618016233       -4.87195220301023        0.68386657773616
H           -6.10025503109805       -5.88010818520798       -1.13661259440667
H           -3.82383578400476       -5.07377744473210       -1.59776438559460
C            6.68965525110279       -1.67156980767513       -0.01575596189032
C            6.00390778351004        0.58100147956539       -0.49520697382553
C            8.33553924271937        0.05441491069661       -0.27427348819994
C            7.32824528308163        0.97559646583113       -0.51344958057995
C            8.01239311205719       -1.26962749140521       -0.02705181426757
H            6.43926752327502       -2.70290496098291        0.18815728173545
H            8.79444767644266       -1.99169995559120        0.15750076382142
H            9.36931737586990        0.36613812622985       -0.28529812757387
H            7.57673200873525        2.00631378693533       -0.71911858875046
H            5.21858257485483        1.29038387558778       -0.70723105330361
H           -2.89358600492959       -0.03767050234064       -1.28509484928991
H           -4.14470713387973       -1.11395066364892       -0.61679977620613
H           -3.11363552720797       -0.13406355266524        0.44957767769082
H            3.27012301165935        1.54098839673603        1.01883872731199
H            2.95485518655012        0.40237853317073        2.31988210876612
H            4.61269845538920        0.59011845589827        1.69159727525524
