71
 energy: -116.479893007901 gnorm: 0.000683886493 xtb: 6.5.1 (b24c23e)
Si          -0.38069359562222        0.97275805334815        0.71581854955186
O           -0.15943396869748        1.99109404183569       -0.52622596084778
C           -0.22396295326070        3.39853086867907       -0.53527023416227
C           -1.63171189081610        3.86903554660265       -0.27743727816752
H            0.43791993366301        3.79250863101980        0.24634987059380
C           -2.69824662964135        3.19439850229202       -0.85567813141192
C           -1.87815946049027        4.95597050467778        0.54817897669993
C           -3.99723715205953        3.59790254733956       -0.60790272443276
H           -2.49980704584490        2.33803653720464       -1.48258164526810
C           -3.17821742131368        5.36402023316132        0.78959122592013
H           -1.05077205875135        5.46998397040639        1.01450148335715
C           -4.23897036832581        4.68619411027608        0.21348574888115
H           -4.82224249302245        3.06119913408854       -1.05354729871870
H           -3.36345662363353        6.20738288809799        1.43800683744532
H           -5.25327907287249        5.00115932047087        0.40993740628101
C            0.26677297323342        3.87419528656530       -1.91436884358863
C            1.64539737676931        3.49225689139334       -2.12856456534087
H            0.16849926571408        4.96113189365721       -1.96928975279086
H           -0.35925559489379        3.41938490685288       -2.68564889799164
C            2.78342783186825        3.14707598015972       -2.26329397997705
H            3.78176173259424        2.85612542672465       -2.40085628640211
Cl          -2.20111693028718        0.48737436547588        1.59701760837351
Cl           0.06649469893260        2.38021224122484        2.31592801972950
O           -0.59823490067038       -0.26364847946772       -0.59377614855223
O            0.92653050450155        0.08154732171943        1.33435993563259
C            0.04234983856913       -2.37976656932408        0.16678309585235
C            1.39880395190884       -1.96942727735378        0.24046143537720
C            3.02343574923081       -0.19046086097294        0.41169871875658
C           -2.21845874217974       -1.90641570157804       -0.48893805127368
C           -2.61685091499855       -3.19550199326394       -0.17219689518048
C           -0.34566167295106       -3.70877920613475        0.44058340636879
C           -1.64228995759533       -4.10269858355127        0.30454741000099
C            2.44695425969445       -2.84588285529083       -0.11336482316418
C            3.72486900981421       -2.39473799801063       -0.24665391466811
C            4.02999642558678       -1.02531346860861       -0.02162538569217
H            0.39937936527337       -4.38900765836411        0.81903215166510
H           -1.94287721035857       -5.10431614576291        0.56832809891742
H            2.20005516551625       -3.86855896230436       -0.34626662951088
H            4.51806538119032       -3.06232182935489       -0.54347560338545
C            5.40666221524861       -0.55939052298605       -0.25908288579100
C            3.18610349024440        1.26289917789227        0.68208512637338
N           -0.94398453770875       -1.52577708947868       -0.27372315425674
N            1.77665614646981       -0.68999518596912        0.59484358328896
C           -3.09954890308437       -0.92545778976945       -1.18108486563681
C           -4.00820620636784       -3.64111260435263       -0.31347287450501
C           -5.05637517437385       -2.88511464292309        0.21028653009262
C           -4.29662832570897       -4.85522022834984       -0.93437831833182
C           -6.63889822336206       -4.53047863818415       -0.53291997106559
C           -5.60305122455030       -5.29201573848586       -1.04815422685671
C           -6.36018313926223       -3.33018893411743        0.10067614263347
H           -4.83748857786555       -1.96338150843461        0.72708072626361
H           -7.16358309823242       -2.73928333005857        0.51495985724250
H           -7.65888565030449       -4.87357627291180       -0.62100092529728
H           -5.81429711757418       -6.22982357316218       -1.54087157183427
H           -3.49167980550627       -5.44573385701020       -1.34800521108704
C            6.14706709470628        0.06284438149480        0.74344755853749
C            6.00198250244335       -0.78083853339132       -1.49854320411375
C            8.02315800347401        0.26462910072712       -0.74018024973350
C            7.29856942748618       -0.36519176946737       -1.73850558083355
C            7.44600099169366        0.47125151099822        0.50192437785268
H            5.70801895526329        0.20522007988204        1.71978923433702
H            8.01117599938534        0.95064360203649        1.28753241216980
H            9.03568833030750        0.58906967706742       -0.92794617220789
H            7.74529297383804       -0.53228866227531       -2.70765987851641
H            5.43331794685791       -1.26481837994844       -2.27955887352240
H           -2.51493633609480       -0.39701779583484       -1.93243651413407
H           -3.93802214146342       -1.43437103921669       -1.64723082707488
H           -3.47249745886881       -0.18345834966880       -0.47731347162194
H            2.49147164668504        1.82263079105708        0.05381414155670
H            2.93244928670510        1.49128900416459        1.71690874293052
H            4.19798110374919        1.58981050674510        0.46970141427206
