71
 energy: -116.479832212421 gnorm: 0.000401295527 xtb: 6.5.1 (b24c23e)
Si          -0.05178873362855        1.02674044667478        0.66423360683707
O            0.49785176612302        1.88703284987727       -0.59421484918982
C            0.92414990556984        3.22728289855715       -0.64324550436265
C           -0.23588145988779        4.17342029166520       -0.46925941156407
H            1.65454259468239        3.40246292142984        0.15697674095834
C           -1.47845893377368        3.84999711239761       -0.99556404522821
C           -0.07510937803847        5.36910479953158        0.21600966724379
C           -2.55157470973567        4.70653819881101       -0.83069110536497
H           -1.59947435587508        2.91297316793410       -1.51789765854665
C           -1.14668028758113        6.23001814019832        0.37215396111415
H            0.88746650148170        5.61626215358929        0.63920051860751
C           -2.38643384302081        5.89985960408116       -0.14874607241347
H           -3.51836654621840        4.44162422957477       -1.23356246527381
H           -1.01591356792394        7.15684473353683        0.91109736274829
H           -3.22413794771906        6.56896584820315       -0.01734384919818
C            1.59626939178750        3.44582301138808       -2.01167195797350
C            2.76389428425368        2.60356521402702       -2.15101568962396
H            1.88208926969315        4.49659744399450       -2.10243967990088
H            0.87654277606120        3.20179471344007       -2.79670637290862
C            3.71447087131804        1.87970907600778       -2.22221476694703
H            4.55557295443050        1.25812111303027       -2.30515381811850
Cl          -1.94864910389646        1.15663126790047        1.50494705320818
Cl           0.78075138472792        2.27906135212765        2.24119212608700
O           -0.61632841398074       -0.11655728515209       -0.62493311852875
O            0.88990108938586       -0.21149004139646        1.34833877489692
C           -0.67039077540610       -2.30902340062850        0.18410811410925
C            0.74432719934580       -2.33171563183709        0.29428059796392
C            2.83519624458679       -1.14707723966659        0.53609674737239
C           -2.66511125267591       -1.18141565359413       -0.53264458958702
C           -3.44473277727891       -2.28014044504749       -0.20707750416688
C           -1.45051204713502       -3.45196652274179        0.46134544558179
C           -2.80264870209139       -3.43362541557279        0.30065641902601
C            1.48001795561514       -3.49409020614663       -0.02062168149096
C            2.83922488687736       -3.46709947436711       -0.09744540339333
C            3.54803408349481       -2.26100480207354        0.15035325768444
H           -0.95597192928725       -4.32055647648585        0.86384835073638
H           -3.39959720209616       -4.29079158994718        0.56889159605245
H            0.93551955209495       -4.39029782316544       -0.26877268273105
H            3.39505247741399       -4.35193112169425       -0.36401257433355
C            5.01196656582426       -2.25890229147614       -0.01050901472094
C            3.43425136871295        0.18503747664914        0.81493141328961
N           -1.33948486683006       -1.20367963676512       -0.29205591729431
N            1.48740706390744       -1.22708475134580        0.65896366514850
C           -3.19172903187264        0.00636079648918       -1.26032730974252
C           -4.90367535142259       -2.28170892384170       -0.36625057739237
C           -5.67621701331924       -1.23010694171876        0.12564158660304
C           -5.54332552368043       -3.36505026308198       -0.96650057484234
C           -7.67895310578979       -2.33488598110998       -0.60428098070163
C           -6.91984592074207       -3.38703646469221       -1.08939152448167
C           -7.05287617163453       -1.26062817272687        0.00703045111562
H           -5.19155039606171       -0.40620917794581        0.62644481123440
H           -7.64139104423380       -0.44388183838068        0.39786614607457
H           -8.75443188718407       -2.35485510072667       -0.69813947917990
H           -7.40288936317717       -4.22813324556433       -1.56490482336514
H           -4.95339824424726       -4.18209358491381       -1.35655115942895
C            5.85732415321272       -1.90018127358845        1.03689664115249
C            5.57102394046247       -2.67114029659575       -1.21753001941729
C            7.77670739719613       -2.33178224751014       -0.33816857636703
C            6.94355928760292       -2.70034201589231       -1.38142408355859
C            7.22977400899557       -1.93732798344591        0.87160746021993
H            5.43469669522203       -1.61417024797130        1.98859954433671
H            7.87543019078688       -1.66076228856425        1.69194734982666
H            8.84850724696834       -2.35688148398384       -0.46587860132410
H            7.36492661403831       -3.01217117345998       -2.32582242355898
H            4.92041501914824       -2.95182815376356       -2.03338819319569
H           -2.45978684086154        0.31530770627980       -2.00492771161512
H           -4.13643689457836       -0.23308127280441       -1.73942202662974
H           -3.33410869413281        0.84137326049900       -0.57670259925813
H            2.99398884338930        0.92145481588023        0.14072161978143
H            3.20188752598770        0.50595618978460        1.82982504180688
H            4.50861020661065        0.16974710782937        0.66920132609623
