71
 energy: -116.481851684106 gnorm: 0.000598756385 xtb: 6.5.1 (b24c23e)
Si          -0.34119620605764        1.21630233791956        0.92728359211352
O            0.46996870260350        1.98638775755052       -0.24022785950391
C            1.34873707303157        3.08143361882833       -0.23247282045364
C            2.66268641189681        2.66787760592101       -0.84805512838015
H            1.50838040104990        3.41729403719780        0.79956922540370
C            2.68971733258503        1.70489436578107       -1.84969975201344
C            3.85356087115609        3.24663146352016       -0.42824209681098
C            3.89118368012854        1.32370089178279       -2.42088040664324
H            1.76153081834348        1.24939946688722       -2.16073608876596
C            5.05381833481605        2.86751682566038       -1.00349869872373
H            3.83663840952945        3.98876146600228        0.35648505839235
C            5.07542003814216        1.90629541508766       -2.00020455096786
H            3.90338363410631        0.57281242919218       -3.19818021700362
H            5.97555264472537        3.32072872949451       -0.66992629188029
H            6.01296890513837        1.61025015533750       -2.44747042899193
C            0.71274703570167        4.22883977700653       -1.04239953962769
C           -0.52587321567667        4.64729220952064       -0.42194951598749
H            1.41328561126582        5.06638404711145       -1.08724746271626
H            0.51251114534681        3.87393828701183       -2.05686187002271
C           -1.55112956697669        4.94351568834614        0.11870886271118
H           -2.44557081887667        5.21575661953605        0.59361128530241
Cl           0.60055829170028        2.19502774166008        2.63165632685013
Cl          -2.22495620085167        1.64795779101498        1.66643742973005
O           -1.01522369211584        0.28897608477715       -0.48075384257274
O            0.25911157241678       -0.24318934498338        1.58167495568029
C           -1.49944086191695       -1.91708116118729        0.10897288603882
C           -0.11981033763549       -2.18848528650279        0.29869030948339
C            2.10343693253802       -1.37595744236907        0.76661176401612
C           -3.22149093210521       -0.39433363707530       -0.58856009781220
C           -4.19478836976428       -1.36756048872779       -0.42131257591973
C           -2.47655121324689       -2.92956035554288        0.21539270464248
C           -3.79195620044950       -2.66005739631852       -0.01418668281757
C            0.44865142469763       -3.42498425729581       -0.07888250528731
C            1.79883782008166       -3.59392517802635       -0.11118869721872
C            2.66693014113369       -2.52711619965400        0.24765704076434
H           -2.16434981643688       -3.90710260845069        0.54368540714056
H           -4.54110596066874       -3.42370539733745        0.12292637070259
H           -0.20942178459326       -4.20630421158226       -0.42154158219364
H            2.22696457611274       -4.52137251320866       -0.45603169550607
C            4.11448988609066       -2.68336055558808        0.07109189577792
C            2.88953799226783       -0.27054323420771        1.37877429652770
N           -1.93864594938691       -0.67218175930912       -0.28495016019452
N            0.75902205183426       -1.25745486744740        0.81797313188658
C           -3.49226077401141        0.92999020033340       -1.21205269552152
C           -5.61865205699388       -1.09461745629782       -0.65100871686801
C           -6.23059333171274        0.01985205684808       -0.07832596707337
C           -6.39158178153103       -1.97544304608302       -1.40541132549757
C           -8.33730739842594       -0.62274392978344       -1.03316004204205
C           -7.73909695403216       -1.73620439434146       -1.59962383981444
C           -7.57999111676458        0.24982931760707       -0.26845096612299
H           -5.64662319794765        0.68579981966804        0.53802296681805
H           -8.04473693420065        1.11248485028939        0.18541996226967
H           -9.39050663307557       -0.43839107444373       -1.18366753294279
H           -8.32527489402900       -2.42065778261074       -2.19524804599404
H           -5.92551741031045       -2.83874885274514       -1.85847572409201
C            4.75232972160537       -3.85588802724732        0.47433434782018
C            4.87151552027298       -1.68405017525455       -0.54109666655369
C            6.85646892905058       -3.01435060242767       -0.31447367439982
C            6.22997832321481       -1.85096554953679       -0.73039636137229
C            6.11214324628267       -4.01602323271313        0.28690704943676
H            4.18057448528493       -4.63314411569217        0.96013592269043
H            6.59482778924292       -4.92540943929697        0.61359522576140
H            7.91864630768077       -3.14154638400317       -0.46046456187468
H            6.80143503533583       -1.06865294352399       -1.20755142321332
H            4.38736347432815       -0.78432405448039       -0.88949635379112
H           -2.66072358734597        1.19426839422905       -1.86284127547145
H           -4.41919113899508        0.89784466481960       -1.77691032728427
H           -3.55901703694183        1.70616792263297       -0.45227206861705
H            2.85833989374258        0.61549118915420        0.74391703255333
H            2.44742809798871        0.01266591329655        2.33330555796935
H            3.92308981084294       -0.56606018581987        1.52703952816799
