71
 energy: -141.797105292521 gnorm: 0.000345518049 xtb: 6.5.1 (b24c23e)
Si          -0.38316963420497        0.98899276974102        0.62747562540254
O           -0.28931814996182        1.98678803055546       -0.62990477919687
C           -0.14889960564255        3.39358872022481       -0.65247713406854
C           -1.36748219375781        4.07966779154314       -0.09178776748526
H            0.73188111663722        3.66943649144583       -0.06131831923654
C           -2.63327286605617        3.57589733009580       -0.35624031251636
C           -1.23614294475005        5.22096079038908        0.68699084180642
C           -3.75409353788534        4.19767768531068        0.16391158733736
H           -2.73611707704038        2.68312225933613       -0.95295312783455
C           -2.35826446821489        5.84689271819660        1.19880141650715
H           -0.25157754592335        5.60858557269378        0.90336152162729
C           -3.61885265692072        5.33513264313287        0.94080179288114
H           -4.73340745573749        3.78926914135611       -0.03718440556387
H           -2.24770794931981        6.73039452173164        1.81015128302875
H           -4.49352128746663        5.81926842589623        1.35007843857523
C            0.06630673883299        3.79817156880501       -2.12137544589464
C            1.34493329113790        3.33767254981621       -2.61674132950494
H            0.01435929199179        4.88740877525202       -2.19878238092245
H           -0.73536262453910        3.35835086125494       -2.71909418622795
C            2.40972072415282        2.95971205959292       -3.01006444684033
H            3.34065198195940        2.63752792426847       -3.36994325935484
Cl          -2.15891352725362        0.27895337724623        1.44711565912708
Cl          -0.00319689064000        2.30989477926897        2.22685081186356
O           -0.51736767945502       -0.30640877895647       -0.75780186555160
O            0.96479646007482        0.08761120533793        1.19723259066110
C           -0.10884954700417       -2.39373539026937        0.16614138084126
C            1.27022656917267       -2.08623321052866        0.28419286419376
C            3.03120883688813       -0.45397070717307        0.30492704757784
C           -2.25986928834120       -1.79721985671437       -0.66996567310095
C           -2.84500993990074       -2.94803854012620       -0.17595919347489
C           -0.65542858524033       -3.63196673965513        0.57361712964015
C           -1.98756040572629       -3.88290396776138        0.45867317792162
C            2.25744939226125       -3.07890262104076        0.09416445781102
C            3.55768038712236       -2.74723872830340       -0.11601322516812
C            3.96404571950380       -1.37705230217860       -0.10593309184075
H           -0.00537385057977       -4.33919256927357        1.06228980118837
H           -2.41577253706655       -4.78972251587299        0.85377190113624
H            1.93819208028741       -4.10612427151993        0.02588326592540
H            4.29772326317681       -3.49894832091613       -0.33461520530941
C            5.31113065959342       -1.04623008458407       -0.58543407031264
C            3.37841926383919        0.95783224007147        0.73734934003189
N           -0.96194332639597       -1.50679368963418       -0.43434817100142
N            1.73327898941917       -0.80057250097741        0.51373894653949
C           -2.94083524887802       -0.89651176858345       -1.68249184284241
C           -4.29069818035679       -3.18137403057579       -0.20450925495529
F           -3.98095783297501       -1.52001435553047       -2.26439765507064
F           -2.11046546159132       -0.61318539653585       -2.69568670917936
F           -3.41275605710216        0.26054705438948       -1.22720749381955
F            2.70416090722992        1.89785652378500        0.07182518152052
F            4.67576172042453        1.25389641781598        0.58049398839419
F            3.14512949667847        1.12579965846353        2.04383436698074
C           -5.15246017746045       -2.16935149822899        0.21972254335972
C           -4.81436058851972       -4.41592663263189       -0.58008422005413
C           -7.03258742706339       -3.61629825806332       -0.14086909078998
C           -6.18010260518562       -4.62669629542139       -0.55456643748333
C           -6.51552326211955       -2.39157293648430        0.24995627636879
H           -4.74234756719727       -1.22548311784542        0.54726427695008
H           -7.17666872300090       -1.60566356940932        0.58162106980762
H           -8.09882279385758       -3.78440254614407       -0.12107714971673
H           -6.58095515179066       -5.58174495519426       -0.85980793782399
H           -4.15072377873797       -5.19774117166987       -0.91950700466596
C            6.42867271420415       -1.70487513412180       -0.08077510004554
C            5.46979692816991       -0.12684773617080       -1.62155683468168
C            7.83720386697285       -0.50902407054105       -1.61071562552791
C            6.72679615182708        0.13824399782518       -2.12812606083969
C            7.68531266103962       -1.42874734653627       -0.58677836992847
H            6.31235865123859       -2.41092436182621        0.72825400760903
H            8.54891607390628       -1.93295228966336       -0.17978486258946
H            8.81920561831642       -0.29648023492027       -2.00519896856472
H            6.84251373632315        0.85175551458524       -2.92977629241329
H            4.59941813847398        0.36823510217364       -2.02662029123607
