71
 energy: -141.796886426526 gnorm: 0.000666962850 xtb: 6.5.1 (b24c23e)
Si           0.10475142503437        1.42163724739525        0.93874266517798
O            1.53779545939782        1.18796880906936        0.19551441167302
C            2.33454436340840        1.97107817746558       -0.68436336798936
C            1.55265914208152        2.27736248734849       -1.94255406948571
H            3.16037933008552        1.29092178299801       -0.95219266016405
C            1.17869592342171        1.19854527047775       -2.73680735030831
C            1.14985504060873        3.55267787893107       -2.31130887544739
C            0.40170213918975        1.38242217338670       -3.86489704816137
H            1.50209839138036        0.20432058711289       -2.46007174159662
C            0.38100996752887        3.73772427517056       -3.44792168172986
H            1.41136628854461        4.40742339271012       -1.71070998457700
C           -0.00111090989692        2.65746396472359       -4.22320581794022
H            0.11309948306114        0.53100651793990       -4.46520663090827
H            0.06913277653011        4.73452489342156       -3.72051639482039
H           -0.61023646702006        2.80667754621159       -5.10249246854174
C            2.92625840306902        3.19345250498311        0.02317551133342
C            3.84189765404012        2.78030086614089        1.06571268249368
H            3.46522795908872        3.79748032335565       -0.71134436685382
H            2.11894740825250        3.78215636030447        0.46259647112812
C            4.60886371886189        2.40003117086662        1.90136592182943
H            5.25935310767312        2.08949535302722        2.66293620872391
Cl           0.04211908628168        1.67378468680161        2.94001125945534
Cl          -0.43328536497428        3.35372360220924        0.36089335849364
O           -1.19497244746838        0.90394629352408       -0.04672220165042
O            0.23955082109767       -0.52196025210099        1.40883416427434
C           -1.13548057254321       -1.37318655407928       -0.78492391682017
C            0.25620238560589       -1.59589751974763       -0.63418507306000
C            2.20170058424398       -1.47409250426133        0.73332123281424
C           -3.15515070661029       -0.32214531439004       -0.01118013451458
C           -3.94102946078179       -1.30494492258886       -0.55388059228809
C           -1.94383940292682       -2.27993325143894       -1.50391141661617
C           -3.29922808032411       -2.25486691230700       -1.40565236679956
C            1.03935646930821       -2.25502344149672       -1.61165968275845
C            2.38128808174131       -2.41532359892562       -1.44896643469722
C            3.01692590018073       -2.00338796871418       -0.25167545992933
H           -1.45918808774185       -3.05170173098619       -2.07927460238719
H           -3.91162966459897       -2.97656172684625       -1.92021827003466
H            0.56589720057412       -2.54892111201503       -2.53407293258690
H            2.98564385732925       -2.83622163946321       -2.23653037161541
C            4.47787826945085       -2.06108161833457       -0.14877852878330
C            2.64757093998968       -1.26142129876715        2.16553145245270
N           -1.79935178767518       -0.31418420646161       -0.17681820861582
N            0.89687361946405       -1.21605823994849        0.51456018254940
C           -3.69213725944772        0.90534428644389        0.69716342729528
C           -5.38279170886295       -1.47712066076504       -0.30802174791931
F           -3.53588758312821        2.00870417519091       -0.04356277523138
F           -3.09686746878448        1.10907741105218        1.87561227680264
F           -5.00416401729493        0.84022760193220        0.95490305157666
F            2.88786534155797        0.00128881053770        2.50246560267395
F            3.77369002474157       -1.94746756223670        2.43719159933266
F            1.74272376581248       -1.75043914194231        3.02262912545578
C           -5.85118847913709       -1.76011907892793        0.97201483858957
C           -6.27714827730552       -1.44417988053403       -1.37306429304980
C           -8.08793886516582       -1.93113330881039        0.12218467715469
C           -7.62527053446863       -1.66035494167863       -1.15440738988711
C           -7.19825951840578       -1.98470186137498        1.18238549190839
H           -5.15565477665540       -1.80411538367926        1.79691284971333
H           -7.55415156155092       -2.20098980049139        2.17807329247290
H           -9.14059977592307       -2.10029910814164        0.29083005934458
H           -8.31563343128915       -1.61706479124549       -1.98340814011732
H           -5.91471915341182       -1.22408344831627       -2.36661582897771
C            5.17446730084855       -3.20268032406413       -0.53902548882405
C            5.18873786201674       -0.93415767472755        0.26570994659576
C            7.25620663628310       -2.10186718934675       -0.08422401148993
C            6.56970981213209       -0.95943431961597        0.29373170638090
C            6.55563553173992       -3.22311673226489       -0.49748079709547
H            4.62823574797969       -4.08252726178966       -0.84621036060032
H            7.08704877681947       -4.11693905814610       -0.78822677482379
H            8.33521919412185       -2.11882354374366       -0.05702048697893
H            7.11034226160777       -0.08042814268788        0.60966213000363
H            4.66118991120215       -0.03518442335530        0.55229014896904
