71
 energy: -141.801320440508 gnorm: 0.000905713364 xtb: 6.5.1 (b24c23e)
Si          -0.17684436680229        0.84860070676158        1.41189788477535
O            0.02310510530452        2.19847171080983        0.57324552913279
C           -0.20054130506935        2.63128968949338       -0.75114058399650
C           -0.84797804378260        3.99279311073468       -0.72314930569888
H           -0.84869858690342        1.92079807533014       -1.26612478487572
C           -0.53614953599249        4.90110947936909        0.27892046760786
C           -1.74815546335468        4.35221252214565       -1.71752319689345
C           -1.12234621175049        6.15452238946343        0.28682204978125
H            0.15159078930578        4.61025389688743        1.05795805772069
C           -2.32844509367882        5.60804402747295       -1.71066683903690
H           -1.99663408616627        3.64282116775390       -2.49425895354113
C           -2.01657849155722        6.51122422434922       -0.70823935921043
H           -0.88048340317670        6.85446485652802        1.07295597030143
H           -3.03052937395678        5.87992471037535       -2.48547648985566
H           -2.47444484089084        7.48959674630283       -0.70080861289636
C            1.15153584539505        2.69801457630266       -1.49192877401385
C            1.59448908799574        1.38658186710234       -1.90725820194482
H            1.03970480900626        3.33384867309251       -2.37414933606641
H            1.88830333261367        3.14296822798737       -0.81959810586628
C            1.93211956412055        0.29269701328120       -2.25798527297300
H            2.22339016006736       -0.66007347054202       -2.58800378058472
Cl          -1.95811683997614        0.11550501431962        2.16616906838559
Cl           0.49412110106625        1.68395857289568        3.17477502989789
O           -0.64772695007795       -0.06437758185433       -0.32778055703876
O            1.01821285248224       -0.35995061516046        1.54374508917709
C           -0.46552881205164       -2.34121981518992        0.02345299072906
C            0.94972360022247       -2.24348602507937        0.08409263974211
C            2.95152080127707       -0.95136384999094        0.41396690915675
C           -2.56779145385267       -1.30603473166557       -0.40289552194503
C           -3.27100225277877       -2.47056693595036       -0.15073621016405
C           -1.14735982959110       -3.57105776443681        0.16258594828000
C           -2.50668024160952       -3.63035447864479        0.12755514748062
C            1.76081968297734       -3.27158467556717       -0.44168225910363
C            3.09401915180682       -3.09453577855470       -0.63659577554377
C            3.71864227678929       -1.86181529845466       -0.27066583398769
H           -0.56901179482005       -4.45159880428421        0.38983882036616
H           -3.02454703386599       -4.55474920655136        0.32512655514292
H            1.27912013034911       -4.17772076447906       -0.77180193290957
H            3.69692454289821       -3.85572825851290       -1.10343264470449
C            5.10613577116417       -1.64315399900217       -0.70227512975031
C            3.53102923926815        0.23122001450960        1.16485962978028
N           -1.22814220769803       -1.23704893840864       -0.24650775056991
N            1.61476359356619       -1.14166871163015        0.60152412984310
C           -3.18407007224766       -0.09029742074843       -1.06212493433804
C           -4.73232804983644       -2.52106600724570       -0.06690960558997
F           -2.43708525487781        0.29264345097221       -2.11490987999061
F           -3.34365307585332        0.98480089769402       -0.29352438271658
F           -4.38752687119423       -0.35972073330013       -1.58938312992676
F            3.01882584856336        1.40438495476263        0.78606887058182
F            4.85776415902985        0.34823361186237        1.01816375326365
F            3.34316583687384        0.10091586288353        2.48262145106484
C           -5.40494151824949       -1.57266942455034        0.70437798378625
C           -5.45357388808450       -3.54188631670400       -0.68088276657693
C           -7.49213126614465       -2.65059032241005        0.21503939605282
C           -6.82786695895876       -3.59908403617379       -0.54509637680488
C           -6.77760849065494       -1.64215009288699        0.84165188635634
H           -4.84148307735391       -0.80189635295785        1.20945558688894
H           -7.29130979191438       -0.90672963137724        1.44176798479749
H           -8.56546446798112       -2.69871687129522        0.32053516732964
H           -7.38248407878092       -4.38555181972404       -1.03486867860126
H           -4.93744134010462       -4.27193735457209       -1.28730674540569
C            6.08992377094679       -2.58216701469517       -0.40538117427605
C            5.42736907793765       -0.54118398372233       -1.49309114254285
C            7.69515473022985       -1.30911929115015       -1.65216159467449
C            6.71617878631533       -0.37989157555673       -1.96396434055289
C            7.37996536776684       -2.40800354464219       -0.87059167110858
H            5.84630091786595       -3.43293665058382        0.21417547474736
H            8.14097007535087       -3.13262175594434       -0.62243837540006
H            8.70230270789155       -1.17685397768776       -2.01741779873252
H            6.95655890462481        0.47530971837455       -2.57708913822296
H            4.66132680057094        0.18013811206844       -1.73964952353542
