71
 energy: -141.810554455070 gnorm: 0.000223700152 xtb: 6.5.1 (b24c23e)
Si           0.96077834534569        1.51993716174078        1.19608793978303
O           -0.52106834668149        1.50791730926683        0.57815656116818
C           -1.42742134105180        2.58567575514435        0.37351394319426
C           -1.27380381607984        3.16795148902233       -1.00683730118293
H           -1.22049755012586        3.35529197047749        1.12839934810304
C           -1.06014510139185        2.34450690395142       -2.10404188122529
C           -1.36368938827196        4.54214707795281       -1.18878453834835
C           -0.93833225740376        2.89318004540372       -3.36833509391797
H           -0.98428485206280        1.27561211069392       -1.98104081595361
C           -1.24832548644997        5.08653871122160       -2.45498884813359
H           -1.52525453547710        5.18507455205414       -0.33475331409244
C           -1.03509854889649        4.26213142543020       -3.54718845589533
H           -0.77374490209032        2.24260497212920       -4.21322244606570
H           -1.32181137516669        6.15581024071426       -2.58765500718253
H           -0.94362346961097        4.68829735075083       -4.53520462579931
C           -2.84864679349278        2.04277800610468        0.59665217307422
C           -2.96451270763907        1.50444160625192        1.93455220921435
H           -3.56364140748898        2.85657832392829        0.45591957980309
H           -3.05603501528380        1.26740494181217       -0.14296986728675
C           -2.98189729120858        1.07355073573624        3.05096131061141
H           -3.02512087812617        0.70247228695268        4.03130590148730
Cl           2.31614780801970        2.01403797369471       -0.21064587560794
Cl           1.07417159780525        2.62273942231402        2.84973028665172
O            1.23831387848396       -0.00461109017177        1.72484857103959
O           -1.16671201821187       -1.05551718583182       -2.04919579609610
C            0.85371736444492       -1.37629276225494       -0.19837789145877
C           -0.54447351871501       -1.50291121834976        0.11339885785007
C           -2.81290676992072       -1.50593870651251       -0.56737181473669
C            3.05510208277744       -1.10811909278428        0.72812773076976
C            3.64900636548709       -1.28077058558058       -0.49501264343237
C            1.43997956763238       -1.55630370294483       -1.44452690614385
C            2.80774772051051       -1.49103660010046       -1.60974220525914
C           -0.97094842259418       -1.78052583816260        1.41720706056094
C           -2.29704258900054       -1.96360191642600        1.71097498068238
C           -3.25771827842830       -1.85850226332091        0.69785691812351
H            0.79924790142287       -1.74319859350343       -2.29099778160300
H            3.24935328303073       -1.59733851567219       -2.58590195360623
H           -0.22365735634749       -1.88815857810345        2.18585490539712
H           -2.61329280773141       -2.22187261012459        2.70760472509624
C           -4.65962766000634       -2.18561675453415        1.01175600361339
C           -3.72971698100682       -1.22125286488378       -1.73751583798835
N            1.67811985565513       -1.08924070724342        0.88980840839128
N           -1.49202174644487       -1.35053776448297       -0.86959368417559
C            3.79823697590384       -0.94643657510932        2.02379130573942
C            5.10844468141696       -1.23851371215489       -0.68561400570106
F            3.09140732391052       -1.41488579908609        3.06161545777938
F            4.09274555662246        0.33560738035362        2.31739232722734
F            4.96380967858838       -1.60956221333412        2.04512922244379
F           -5.02351825815481       -1.14745213107640       -1.38813130474477
F           -3.65438717943467       -2.16143975486114       -2.68980542316736
F           -3.46997595649522       -0.04082549080840       -2.31509659663338
C            5.83401029119703       -0.10916093365459       -0.31901581872870
C            5.76251161241901       -2.31215576738920       -1.28136249177633
C            7.84983602941657       -1.14469024090276       -1.10796297557278
C            7.12942397441391       -2.26658247299963       -1.48269860923248
C            7.19934464396025       -0.06591439203904       -0.53292385300879
H            5.32458176882750        0.73791633788252        0.11507742571290
H            7.75646167652528        0.81337783423680       -0.24725453941805
H            8.91722747926241       -1.11044107818257       -1.26655229442433
H            7.63329652235467       -3.10834243739927       -1.93375689749303
H            5.19763948693668       -3.18805947837311       -1.56490198829965
C           -5.27737635129404       -3.27252722969858        0.39962637430602
C           -5.34828696676855       -1.45628629671047        1.97467681105132
C           -7.25937589597298       -2.87912341309657        1.69161426225857
C           -6.64686501720596       -1.79899691741164        2.30425480696214
C           -6.57155297801316       -3.61587381995610        0.74176740095249
H           -4.73934553943248       -3.84711455002488       -0.34043423713813
H           -7.04479759387363       -4.46001357177063        0.26349491015459
H           -8.27246220640184       -3.14597536679992        1.95231115537426
H           -7.18185219092279       -1.21979702858627        3.04193239421366
H           -4.86737712605482       -0.60644290281664        2.43619135175344
