71
 energy: -141.800722452246 gnorm: 0.000717950936 xtb: 6.5.1 (b24c23e)
Si          -0.18699787705345        1.87965993027903        0.17571445363411
O            1.28189829554990        1.46677694461619       -0.39021763330102
C            2.06581052431491        1.99779014568036       -1.44733502886246
C            2.46664700167801        0.80163165321267       -2.28224301913644
H            1.43518718886379        2.66574556336975       -2.04866047900958
C            1.45100970868734        0.13705550527969       -2.96432180946796
C            3.75602915517956        0.29375239311122       -2.34146425385914
C            1.71785199428400       -1.00999100338037       -3.68680264443457
H            0.44737144458574        0.53568777933835       -2.92395530508193
C            4.02285366875239       -0.85937111444627       -3.06183330104888
H            4.56841281579860        0.79211385059299       -1.83754627692373
C            3.00730640752048       -1.51503076497258       -3.73353269875855
H            0.92105594541976       -1.50788103441085       -4.22015294922728
H            5.03184198027172       -1.24393617191149       -3.09474445983308
H            3.21953656592283       -2.41099071649598       -4.29838581841037
C            3.22242292320262        2.81904975540919       -0.86904436613449
C            2.70215773341019        3.98491918609602       -0.18345107308431
H            3.87940211910166        3.13146877150801       -1.68487676593363
H            3.78561836883276        2.21893989449663       -0.15103798597577
C            2.22340219803633        4.91879240870325        0.38960194910846
H            1.81409877345032        5.74234547731081        0.89309812394979
Cl          -0.36119352585238        2.85843523884511        1.92463429448514
Cl          -0.72322261476316        3.39053370707775       -1.16231004338341
O           -1.45136870506004        0.97669696234979       -0.54312425402547
O            0.03243141178776        0.25589386768162        1.32529485805882
C           -1.33917928341829       -1.39766835789549       -0.35103448707078
C            0.06150298059314       -1.50639562209417       -0.16318043197001
C            2.00504970416267       -0.88279779743565        1.06286036470610
C           -3.38571335045665       -0.18195751156578       -0.00787280307874
C           -4.14178782777768       -1.32325300933290       -0.09337275237680
C           -2.12268720551751       -2.53629674549217       -0.64085618743888
C           -3.47571904556169       -2.51352633839873       -0.51879383703711
C            0.84535956707741       -2.47043938138005       -0.83677429357995
C            2.18152614396949       -2.57355723364302       -0.61056374416062
C            2.81394026010936       -1.76797973569393        0.36874127283280
H           -1.61688331103808       -3.45592956468474       -0.88532793797912
H           -4.06779598757705       -3.39733333731408       -0.68918530045761
H            0.37510066172517       -3.07524790163251       -1.59390055176837
H            2.78470028260724       -3.25581886841627       -1.18615403968264
C            4.26568583534638       -1.88161562354129        0.53520187977175
C            2.46587737017333       -0.12174555914579        2.29050895037555
N           -2.03286276930165       -0.20593096649862       -0.18600271187775
N            0.70303662873734       -0.71350252258576        0.75203869222390
C           -3.96148001700487        1.21161899898796        0.14859053849568
C           -5.56995334829951       -1.42849095183593        0.24402384930055
F           -3.79643755803045        1.93883185367222       -0.96150696666526
F           -3.40861244610478        1.87567782177428        1.16696838901739
F           -5.28101788208849        1.21922137003304        0.37535302308379
F            2.82358418837652        1.14061410693839        2.04942568382289
F            3.53484322974146       -0.71280025334887        2.85930675497313
F            1.54323562666139       -0.11032861933698        3.25353115547978
C           -6.01618786840736       -1.13495067808544        1.52998674737393
C           -6.47173175019965       -1.91170785505573       -0.69947649972881
C           -8.24526177488693       -1.76729386362417        0.90817814218980
C           -7.80482518603555       -2.06987733117863       -0.36932557549037
C           -7.34815388838144       -1.30394838867113        1.85625979736743
H           -5.31499016189908       -0.77875621710877        2.27005609539642
H           -7.68675505379102       -1.07222126813716        2.85442919199162
H           -9.28625423570662       -1.89241794869352        1.16480985138654
H           -8.50089142051005       -2.43068067578059       -1.11155192989349
H           -6.12785546726501       -2.13758434068686       -1.69816397816237
C            4.86935202904001       -3.13842001368083        0.54823582713828
C            5.07314532205942       -0.74710299901552        0.59923450189688
C            7.03678693366701       -2.12091004434445        0.69262603061494
C            6.44672290011751       -0.86784773824267        0.67563401247596
C            6.24353477939300       -3.25468551355897        0.63342849562560
H            4.25472794534555       -4.02611045493494        0.52212728566297
H            6.69743476846656       -4.23418885147980        0.65473432928224
H            8.11041056196583       -2.21347239517059        0.75497553216281
H            7.05956833805318        0.01965216433430        0.72256734527975
H            4.62018027994443        0.23135493363727        0.57940777514427
