71
 energy: -141.800157073438 gnorm: 0.000515173949 xtb: 6.5.1 (b24c23e)
Si          -0.09154576075594        1.54977002218417       -0.34960144236336
O           -1.50365398355107        1.16071958759072        0.37036504088932
C           -2.22417639873267        1.92806408586055        1.31833487691350
C           -2.64453825986083        3.27385203926646        0.78623888285200
H           -1.58538274181368        2.07002750185989        2.19824606072634
C           -3.05524910800049        3.41596785927355       -0.53084047497373
C           -2.64486411388039        4.38077331794935        1.62414920909023
C           -3.44351851622045        4.65423884317164       -1.01028183407808
H           -3.05303690145431        2.56030776004878       -1.18641748185660
C           -3.04157819590963        5.61576276146115        1.14599275307779
H           -2.31548451010840        4.27619532881876        2.64752983384321
C           -3.43876042273875        5.75580864678633       -0.17320392883765
H           -3.74671414548636        4.75602088150122       -2.04146897605925
H           -3.02978683266682        6.47359449807192        1.80209079306988
H           -3.73787272493856        6.72337926842039       -0.54861354732189
C           -3.47457401871681        1.12506871047617        1.71751727303841
C           -3.11976479591334       -0.14982126800844        2.29884176286877
H           -4.04577277415483        1.71163547605612        2.44148869874623
H           -4.08783323509230        0.97635390280073        0.82579993331354
C           -2.78938923648755       -1.20259402800702        2.76243324250110
H           -2.52645969425458       -2.12000336624204        3.19676919930090
Cl          -0.02890529493869        2.38084814870179       -2.19808779886182
Cl           0.42218854815768        3.25032551643519        0.77719733719432
O            1.27302754106061        0.80377265120474        0.39724749441995
O           -0.28232393990521       -0.09490840223663       -1.32322806349184
C            1.54887060675984       -1.54143186128453        0.09337567902567
C            0.16955888840947       -1.87174976430348        0.08286117133823
C           -1.99818169248148       -1.57527476318650       -0.86016697946363
C            3.34344275426998        0.01491892016981       -0.26839004905557
C            4.26794966672152       -0.99156241820483       -0.40555669843834
C            2.52206103378988       -2.56550240769197        0.15153243592219
C            3.83203390748925       -2.31739528727127       -0.10344115778226
C           -0.32295428557311       -3.00950188109470        0.76342399941172
C           -1.62600317945195       -3.37952211754540        0.66367264852608
C           -2.51443942848795       -2.66089884554193       -0.17587901974034
H            2.18689997147242       -3.57629455690044        0.31618238735674
H            4.55825832284815       -3.11285539945970       -0.12364890612017
H            0.34908345683059       -3.54485394763896        1.41392946877806
H           -2.01059317958272       -4.21934858951201        1.21970748256314
C           -3.91022416187214       -3.11358983529958       -0.25219360026089
C           -2.80576227740067       -0.87423385503065       -1.93514713720551
N            2.03061771900400       -0.24632132890471       -0.00929474997707
N           -0.72203684148642       -1.16573541626630       -0.68738878546781
C            3.70814997289660        1.48792711305223       -0.23888360760232
C            5.64987496993885       -0.81720623056883       -0.87444802154334
F            3.43271124877508        2.03126141407846        0.94983915127822
F            3.08260353170699        2.19131423250565       -1.18427410187554
F            5.01815180086770        1.70667622909996       -0.41934659041859
F           -3.51470233771049        0.16476977634764       -1.48094974372851
F           -3.70193009362979       -1.71888071319644       -2.48345790150128
F           -2.08051286307979       -0.44491406497126       -2.96333349926310
C            5.90334750413040       -0.23845018937961       -2.11624106310804
C            6.71079855923164       -1.31327271032263       -0.12217375361691
C            8.25296924317892       -0.62565513189726       -1.82506812819997
C            8.00620180780129       -1.20758718209180       -0.59300866597056
C            7.19940230694109       -0.14515719538847       -2.58535910443290
H            5.08087876779569        0.13078655462918       -2.71096098897041
H            7.38724082788274        0.30446518760955       -3.54832731051184
H            9.26495452501616       -0.54607998167965       -2.19203446464514
H            8.82493579416532       -1.57915218732461        0.00473877754000
H            6.51817346777180       -1.75469836640726        0.84471592061209
C           -4.18108860633344       -4.45124327867613       -0.53343387467089
C           -4.96701854964020       -2.24786560182392        0.01645372823784
C           -6.53211805078610       -4.03812641722606       -0.30783528489873
C           -6.26854487080184       -2.71151577131408       -0.00995487258091
C           -5.48537206128163       -4.90631554578407       -0.56991272471796
H           -3.36552294117942       -5.12530808268143       -0.75183807488651
H           -5.68518885772355       -5.94126507378523       -0.80410996345383
H           -7.55039520920919       -4.39541315772436       -0.33397252543348
H           -7.08032665023603       -2.03291941626614        0.20348200436911
H           -4.76265000139048       -1.22034359727855        0.26947065057088
