77
 energy: -148.148390619821 gnorm: 0.000256783690 xtb: 6.5.1 (b24c23e)
Si          -0.29950418014134        0.95473515542750        1.03490217162504
O           -0.92634706389762        2.42167262972742        1.11347040782894
C           -2.25058385831555        2.91640700859189        1.19482840205766
C           -2.83711579443158        3.15030368579437       -0.17410653868739
H           -2.86945550865499        2.19269134119807        1.73901261409208
C           -2.02149895904188        3.36766452693246       -1.27400196802702
C           -4.21735471042450        3.16561003204608       -0.33236702986270
C           -2.57974287923558        3.58293165640351       -2.52194259106087
H           -0.94937201029706        3.34990904637089       -1.15098125277501
C           -4.77275539334807        3.38644156953789       -1.57878905105236
H           -4.85419330788824        2.98601285893210        0.52179302464102
C           -3.95438906923911        3.59320638232615       -2.67691004969481
H           -1.93774298093627        3.74069038209669       -3.37577665391976
H           -5.84648342740424        3.38747071167199       -1.69505064370081
H           -4.38921784567295        3.75635307355615       -3.65178027523638
C           -2.19067239039399        4.23276578089311        1.99110028157221
C           -1.75594969379428        3.98422907563784        3.34934702597141
H           -3.18093812218110        4.69410398000828        1.99378868925044
H           -1.48530121427447        4.90592818001220        1.49761088216550
C           -1.38880643953105        3.72235011984919        4.45741411017009
H           -1.06688607987816        3.51908210413890        5.43460362939441
Cl          -0.96348910733880       -0.31433320952538        2.43848345016557
Cl           1.64849073785849        1.39062004376891        1.10546124830972
O           -0.63068179950684        0.32244147013137       -0.44769035466901
O            2.13384456871022       -1.93602794852203        1.22447905651257
C            0.21507011968954       -1.90818763866185       -0.62298365751505
C            1.52684574405909       -1.32350549682015       -0.88156844724553
C            3.70067304619419       -0.91945194661744       -0.05670213628901
C           -2.14627779941962       -1.49490557487935       -0.58984794866884
C           -2.38648907191028       -2.74400539629670       -0.06076897747080
C           -0.00092833042431       -3.20574233894857       -0.19278901488099
C           -1.30294448812624       -3.60971310099629        0.12039884139058
C            1.81883747071984       -0.60525449651787       -2.04405599669004
C            3.05771064027603       -0.00205534466350       -2.16061275576804
C            4.01737276429518       -0.13921525567810       -1.15902736232328
H           -1.47883386324649       -4.59586087840631        0.51576232082931
H            3.29108034603654        0.59404786399495       -3.02828307714794
C            5.28607494392416        0.59875464552004       -1.27653783511497
C            4.67755536732476       -1.27823725336432        1.03692693623887
N           -0.85431936648478       -1.04777418651074       -0.83824332732277
N            2.44828300190555       -1.42134232887243        0.12436772688646
C           -3.21668169131261       -0.52665108091641       -0.97800887065258
C           -3.74355062574105       -3.19332363811544        0.29766285891368
F           -4.32874496921770       -1.12580871540539       -1.43451067679071
F           -2.82290866311794        0.30319033245785       -1.95361601745462
F           -3.62397945868785        0.25941634403154        0.04525069114564
F            5.95673174259715       -1.12145962656050        0.65124588997856
F            4.58591749658053       -2.56983382170719        1.38349892276849
F            4.53129719710105       -0.55472388849004        2.15246077563256
C           -4.49061165071050       -2.49009457833428        1.23697829224141
C           -4.26668666234477       -4.35215009992414       -0.26604008283495
C           -6.27334441406306       -4.08104730889631        1.01844210863396
C           -5.52960159231566       -4.78838684389124        0.08877942929215
C           -5.74958449292653       -2.93617410479029        1.59472355418106
H           -4.07598258613078       -1.60645021641207        1.69827470191040
H           -6.32328154948080       -2.38670253325814        2.32583738432617
H           -7.25918971095027       -4.42344123063841        1.29535967846555
H           -5.93407664392572       -5.68300222276246       -0.36081991530033
H           -3.68608983350650       -4.89630569853053       -0.99636698193166
C            6.10269754577962        0.43503357323478       -2.38973357059228
C            5.63726362140493        1.52075331442328       -0.29410765017565
C            7.62113111410409        2.07671989952455       -1.52397031747137
C            6.80057296427676        2.25572188646921       -0.42238967777805
C            7.27061712125963        1.16622506099906       -2.50641296319241
H            5.83085886566214       -0.28320605610694       -3.14953317755236
H            7.90850560389400        1.02433686382278       -3.36612277997093
H            8.53325293901508        2.64693246260639       -1.61706807461980
H            7.06847877086681        2.96913944673542        0.34208908673704
H            4.98859758362865        1.66302405871249        0.55751468928542
C            1.12072934016248       -4.18085481780836       -0.07727877377387
H            1.81815824372795       -4.07828085534084       -0.90646416838842
H            1.67085443987949       -3.98326731704419        0.84536547681417
H            0.74030707499162       -5.19760761478529       -0.04869181908303
C            0.80930918276037       -0.48585687348078       -3.13834386161983
H            1.28923507163183       -0.17401569959126       -4.06179855211739
H            0.29611849369216       -1.43126599902591       -3.29932601847706
H            0.05898313585148        0.25775066950439       -2.87241846451720
