77
 energy: -148.140459307413 gnorm: 0.000787832582 xtb: 6.5.1 (b24c23e)
Si           0.00274828942727        1.12317199051079        1.49544116576599
O            0.48821621760123        2.17468367153396        0.41464819782283
C            0.11613372739511        2.68358064830938       -0.85507813341813
C           -0.62277044950577        3.98527702714951       -0.69220386303740
H           -0.51302490284003        1.94628689670953       -1.35782857383198
C           -0.26785927662695        4.87748298161270        0.31052435235275
C           -1.65523604074146        4.30885223799103       -1.56258524382318
C           -0.94116223365513        6.07910749951686        0.44241941197006
H            0.52664700456610        4.61916180714707        0.99438260341310
C           -2.32229438620290        5.51366035286628       -1.43292038917435
H           -1.93678175427654        3.61101644800256       -2.33729655076291
C           -1.96663776990703        6.40058479873115       -0.43032870870542
H           -0.66351829694284        6.76586157611718        1.22838303618479
H           -3.12590431766924        5.75828634789060       -2.11177829314844
H           -2.49141264639352        7.33900086247491       -0.32724209224442
C            1.41100018569602        2.87950547496738       -1.66344661995356
C            1.92510064109883        1.60693132241065       -2.11980118507850
H            1.19980097440713        3.51685032231929       -2.52572848077051
H            2.14817250632729        3.37190423843822       -1.02434536422604
C            2.31340866920871        0.53804693962006       -2.49163166235051
H            2.66039459895632       -0.39089365439070       -2.83299893700265
Cl          -1.95311345247116        0.73833366305883        1.78207190545377
Cl           0.63053552050688        1.93082057193233        3.22615132315062
O           -0.61880741158005       -0.08669217957467       -0.82384599002354
O            0.77099721513708       -0.35732239199804        1.54204253635124
C           -0.61689669538223       -2.18707406841341        0.04187382788747
C            0.83316613787738       -2.11888148167581       -0.04090921011012
C            2.84385374787327       -0.85989272884141        0.48134771596036
C           -2.62830095287240       -1.11654687251440       -0.59229888438988
C           -3.39910625268718       -2.13724550067094       -0.04132307873539
C           -1.34161528332746       -3.26417691413948        0.56708807753891
C           -2.72094817455143       -3.21102340809066        0.54510833440456
C            1.58345874954311       -2.98535195561544       -0.81779060837692
C            2.94491009725639       -2.75091896101267       -0.98884165552487
C            3.58282235655814       -1.66374519063791       -0.34989063101981
H           -3.29637952963242       -3.99505456218002        1.01107001954152
H            3.51916249175828       -3.36882899152273       -1.65830882236450
C            5.00084060447695       -1.42567704891238       -0.67209826415751
C            3.45052094152210        0.16795176466554        1.39228162872087
N           -1.28421348048191       -1.10763113041876       -0.46541352730955
N            1.47762234234446       -1.06063631526123        0.59844721410585
C           -3.17480018507481       -0.01659938271249       -1.46947254062815
C           -4.86360527132873       -2.08007734627015        0.03543783707418
F           -2.43645308506655        0.12826430840847       -2.58289667120815
F           -3.24094742294218        1.19142008008505       -0.89859017862182
F           -4.41085034185196       -0.28741417385336       -1.91823513944160
F            3.19898528461553        1.43630754266773        1.02886241746229
F            4.78518628246903        0.07060118201946        1.47573959862174
F            3.02725272346076        0.03100654638682        2.65957209669584
C           -5.48615794308359       -0.94886453131198        0.56045487400006
C           -5.63704466786814       -3.17458202226984       -0.34067896596997
C           -7.62753842566946       -1.99977033803965        0.29746431731561
C           -7.01292327375839       -3.12937864377618       -0.21639667712443
C           -6.86125000601494       -0.91377271229408        0.68859956511241
H           -4.88518353951193       -0.11115437332158        0.88239782760353
H           -7.33668312023594       -0.03492022839906        1.09685148237054
H           -8.70229699332932       -1.96670829049725        0.39466216957528
H           -7.60709601000050       -3.97785121131995       -0.52190133834961
H           -5.15722369480741       -4.05010073077218       -0.75360243063811
C            5.92935496943185       -2.45186561666768       -0.53039573078674
C            5.40745992104260       -0.20299021059627       -1.20043436106582
C            7.64970386289184       -1.03228435177709       -1.41070571973871
C            6.72613832093893       -0.01214110865989       -1.56763173280458
C            7.24912176971058       -2.25115969205984       -0.89006225119242
H            5.61613540066628       -3.39925631399622       -0.11658318919217
H            7.96620843050900       -3.04881938403666       -0.76462380951901
H            8.67998867033221       -0.87786388171507       -1.69421919174125
H            7.03302896411337        0.93799720996334       -1.97805432400355
H            4.68309430408548        0.58781305513504       -1.33234751521688
C           -0.64540392308785       -4.40944150222422        1.23133014791990
H            0.39808571018488       -4.17568687543531        1.42111672221732
H           -1.13582276779318       -4.63482958265838        2.17585903213031
H           -0.69850075305824       -5.30273484813950        0.61091677876284
C            0.95457850440957       -4.12096793256675       -1.56492270548557
H           -0.11976217177801       -3.99811631446744       -1.65951480059409
H            1.38920882634206       -4.18776912933800       -2.55970654754113
H            1.15696193926630       -5.06102328359423       -1.05327062708504
