77
 energy: -148.135880103763 gnorm: 0.000542586903 xtb: 6.5.1 (b24c23e)
Si          -0.39311732909275        0.78639462361652        0.53826187202085
O           -0.73857136606292        2.17530950265109        1.27633312304223
C           -0.34208905788569        3.50480313488790        1.02346118536621
C           -1.10220960683390        4.07812015404575       -0.14442375575455
H            0.73440525169709        3.52672184369122        0.81723534160503
C           -2.38940965163832        3.64200038735040       -0.42552773053016
C           -0.52384235271430        5.05850067677900       -0.93957807904048
C           -3.08717030580213        4.17441460514488       -1.49511328932102
H           -2.83664899781158        2.87330884581604        0.18660653188683
C           -1.22623315398402        5.59533821612998       -2.00323085132968
H            0.48250404268888        5.39075296880323       -0.72818001924395
C           -2.50862150641668        5.15362510071420       -2.28379359050389
H           -4.08469467915932        3.82125064220704       -1.71068290573280
H           -0.76848809025655        6.35520057263356       -2.61983094107667
H           -3.05336945578391        5.56934237313260       -3.11891867426551
C           -0.62580296515844        4.30953826466442        2.30440603608327
C            0.24698552454949        3.87669564851763        3.37459385759424
H           -0.46766825222686        5.37146985903293        2.09935347969553
H           -1.66818728273763        4.15066577473435        2.59104617254729
C            0.99163126295699        3.48233545929572        4.22349222324465
H            1.63220958679517        3.14665690873546        4.98280877628419
Cl          -1.85894854892222       -0.11389352982783        1.82281268297767
Cl           0.98874600058567        1.65091428340198       -0.92257799941013
O           -0.89448833050049       -0.15569894401269       -0.84447956875953
O            0.75585359106140       -0.31336886580646        1.20301644764041
C           -0.22667371860182       -2.33661481146956       -0.33873145306353
C            1.15440931043242       -1.89697620946652       -0.47588173488831
C            2.88068344119544       -0.39531296104461        0.26833120167460
C           -2.55109873186576       -1.75024665472222       -0.51458854786665
C           -2.94007738247400       -2.97497060778082       -0.02272703683026
C           -0.59008004278223       -3.62260007521605        0.07020118732142
C           -1.92749316829488       -3.91609202479380        0.26248012025083
C            2.03048235846517       -2.41488887081713       -1.43434811025161
C            3.28315682828370       -1.84819476817170       -1.58003491597615
C            3.72843955032841       -0.80914447563132       -0.73294326591925
H           -2.21286662101779       -4.86616463733481        0.68401047095259
H            3.92427367727294       -2.16260734954676       -2.38738782832477
C            5.01509249581085       -0.15623947407061       -1.00550730199815
C            3.30009187439629        0.48667064395809        1.42294527397445
N           -1.23040215873809       -1.44553803639751       -0.63689312143990
N            1.62623324744373       -0.91579387874632        0.36547779419095
C           -3.48919075647649       -0.74875137649869       -1.14847046363724
C           -4.33648436140809       -3.28768430593654        0.30420795275691
F           -4.66324632009212       -1.31220241934105       -1.47959500344571
F           -2.98442449364310       -0.30617334825341       -2.31269405578793
F           -3.78448678743286        0.32785089689145       -0.42387010717867
F            4.63808003839863        0.51655144507015        1.55547587129437
F            2.85616814949290       -0.00770268737371        2.58836700657403
F            2.90514813742982        1.75701505367705        1.36142315584331
C           -5.05650023294912       -2.40462157055523        1.10710112947003
C           -4.92593054534722       -4.47473673635995       -0.11864664406256
C           -6.94853599440377       -3.87918912318745        1.02369773647568
C           -6.23118651000914       -4.76294471882965        0.23463315672027
C           -6.35746193912416       -2.70553208132057        1.46309604476404
H           -4.57748562383273       -1.50468282938296        1.46345076137586
H           -6.91226589282652       -2.02061909036476        2.08586444293198
H           -7.96763787726014       -4.10717291346342        1.29803297687310
H           -6.68974516234703       -5.67886700179029       -0.10727282748081
H           -4.36837776330703       -5.15557305446628       -0.74528880835009
C            6.17467263823981       -0.90449092634806       -1.18227170711996
C            5.05735211549653        1.22877030378175       -1.15481730745270
C            7.40866268258306        1.10503644560949       -1.61818130211178
C            6.25219945031135        1.85166963846922       -1.46138373131758
C            7.36784468151444       -0.27234898164675       -1.47889093792152
H            6.14256360017531       -1.97730085524121       -1.05977783459733
H            8.26806819205933       -0.85602734963174       -1.60105383116808
H            8.34170091647900        1.59589464167639       -1.85090454870647
H            6.28031436085789        2.92426479532980       -1.57777281129739
H            4.14792888904789        1.80194736657994       -1.05120438012004
C            0.44125915934131       -4.64795349069844        0.42423395460926
H            0.46308856684581       -5.43232694016390       -0.33093498069458
H            1.43094860863995       -4.21064060271134        0.50746760914685
H            0.18152800011115       -5.11125118690985        1.37315793218779
C            1.59856660231736       -3.48501197091870       -2.38744234471127
H            1.92303611758954       -3.23004163442331       -3.39342816859225
H            2.06496316087093       -4.43212262569477       -2.12009583699464
H            0.52078790544737       -3.61201808066752       -2.38762815511643
