77
 energy: -148.056424595797 gnorm: 0.000580338168 xtb: 6.5.1 (b24c23e)
Si           0.11213963450878        1.13665014529361        1.03128139782357
O           -1.20276999890647        2.37184609916160        0.67625658127106
C           -1.45165379910619        2.91427141933269       -0.42544821662462
C           -2.60274282155261        3.72338272148348       -0.64296388343473
H           -0.76678150353897        2.74992330002912       -1.25977722530824
C           -3.53407674264298        3.93724950590942        0.38964158940470
C           -2.82551373661323        4.31161248650315       -1.90001973459914
C           -4.64578591327904        4.71786297408425        0.16574029609665
H           -3.35533778822078        3.46935639365664        1.34483910750517
C           -3.94152017675793        5.09110719194908       -2.10898762486686
H           -2.11419647991696        4.13988724075596       -2.69384730269048
C           -4.85262501401883        5.29863312035368       -1.07973941551681
H           -5.36034981594186        4.87974035994937        0.95882249587968
H           -4.11216112497772        5.54279676137195       -3.07509068080230
H           -5.72512169414395        5.91153406604950       -1.25065878837417
C            2.14393377591135        1.20997459603163       -2.46527341090489
C            1.78892075987054        1.62007942454938       -1.28558065188656
H            3.00919672068243        0.58585988632779       -2.62503516006798
H            1.58800471951576        1.49166550984100       -3.34486125128175
C            1.39622892252506        2.01284033990609       -0.11910850449522
H            1.79137602904924        2.94064448391363        0.27417850134513
Cl          -1.48411533575097        0.05392450522184        2.04510318342825
Cl           0.68901268042252        2.16939117070004        2.76893126033923
O           -0.41067865729988        0.18383043443145       -0.63993372158826
O            1.13744531368193       -0.37420204370982        1.38930902991034
C           -0.01543388944828       -2.06260719394873       -0.33671000790082
C            1.40613689953594       -1.75468998478442       -0.44708999665486
C            3.25009512535597       -0.52493852177787        0.44090536631672
C           -2.23129200809193       -1.22005119754813       -0.48490846501815
C           -2.76248654341800       -2.44676421277835       -0.13032527228922
C           -0.50755787564499       -3.33582052891537       -0.04147389311473
C           -1.87194181266674       -3.50896180336356        0.09277379880434
C            2.22556772767816       -2.28360771531589       -1.44315628543983
C            3.53978572692156       -1.86060716425642       -1.52304366058374
C            4.07342103004129       -0.95892057053845       -0.57916259542125
H           -2.26797195543800       -4.46056746094882        0.40851872480934
H            4.16653329368402       -2.19212174652634       -2.33517533571170
C            5.44666973312581       -0.46896637357206       -0.76808728076519
C            3.78918869768429        0.22151940227153        1.64288523131621
N           -0.88943273540162       -1.02822981430105       -0.52442169763893
N            1.93968410526333       -0.88468699196867        0.47247143827354
C           -3.09815246202931       -0.09466241702584       -0.99774117212024
C           -4.19937627791512       -2.64402528408839        0.10486668003911
F           -2.48958182672947        0.62112402097943       -1.95666665298791
F           -3.54125031062319        0.77442758732858       -0.09196210184859
F           -4.19934430083574       -0.58764454812877       -1.60259678058881
F            3.72089963281399        1.55093775514218        1.54276292439399
F            5.09547639965007       -0.06607460128514        1.82836389330947
F            3.20105581213933       -0.13759717564092        2.78035262309316
C           -4.86477752480133       -1.81004241981343        1.00063106713938
C           -4.88495565644821       -3.69035367249297       -0.50425143475002
C           -6.89109109653938       -3.04592356629387        0.64007019097900
C           -6.22858954312421       -3.88294809439331       -0.24242683181186
C           -6.20599248149344       -2.01632649204336        1.26422601859998
H           -4.31749796398215       -1.02681106180323        1.50288755040654
H           -6.71750601636578       -1.37002448715997        1.96096941672143
H           -7.94032739128563       -3.19931702149088        0.84373073817105
H           -6.75980192373124       -4.68811011371243       -0.72788688382219
H           -4.36770157688401       -4.33429077322235       -1.20062288184884
C            6.49305939988699       -1.36470863677886       -0.96879080607023
C            5.69683243698180        0.90063537952157       -0.82181180145715
C            8.01949577260388        0.46472979183663       -1.23958187381121
C            6.97867724091377        1.36028690788357       -1.05780025971115
C            7.77419952123798       -0.89761685956237       -1.19428020531355
H            6.30184671994288       -2.42665789160991       -0.91941032203778
H            8.58331132923275       -1.59873297328602       -1.33440320559768
H            9.02050354438711        0.82779684432655       -1.41726833655740
H            7.16448884456977        2.42268771171941       -1.09890115433203
H            4.88308844208597        1.59893552875755       -0.69649050812442
C            0.41235747619680       -4.48400731850248        0.23135537751908
H            0.39091879341488       -5.19000222929272       -0.59752271254537
H            1.43398242868777       -4.15074892727836        0.38383536846072
H            0.07860158240037       -5.01074532639626        1.12210742149229
C            1.69190579627884       -3.21631492184897       -2.48489171909872
H            0.60666343811007       -3.22841623786629       -2.49464281546187
H            2.04943072097777       -2.91047014242000       -3.46539412451086
H            2.05364854759656       -4.22713554888212       -2.30274162546076
