77
 energy: -148.138387647173 gnorm: 0.000811022219 xtb: 6.5.1 (b24c23e)
Si          -0.38658893824256        1.61697185797429        0.73424354639108
O            1.21321561702199        1.61522273260092        0.44054566885176
C            2.06276249765560        2.60668511094399       -0.11302911893428
C            2.91145973537684        1.90532305584661       -1.15082091209143
H            1.43636434360095        3.35911515685234       -0.61152298075742
C            2.24709614438079        1.16877186853082       -2.12719081233780
C            4.29878918442159        1.93216700485314       -1.16553612308211
C            2.95230014038761        0.45782242273616       -3.07853543816978
H            1.16701928651259        1.16371348111174       -2.13253666622201
C            5.00536917234475        1.21747542455580       -2.11937099198280
H            4.84576499358439        2.51142925101213       -0.43863223602256
C            4.33717696662377        0.47190358673768       -3.07197323532654
H            2.42066192866467       -0.09879124999221       -3.83668600894046
H            6.08494800188875        1.24278738628587       -2.11318926915443
H            4.89176203429916       -0.08644829051193       -3.81169670026079
C            2.84876513358140        3.30513646621212        1.00395895893288
C            1.93635649460705        3.90546082994851        1.95614698312522
H            3.47355160429752        4.08452331259622        0.56042216248959
H            3.47682335577211        2.58404252780680        1.53162147256312
C            1.15339737754754        4.36710973729274        2.73318328250905
H            0.46971685048632        4.77683968891316        3.41408649458217
Cl          -1.26851471393641        1.83608391577235        2.54558646113671
Cl          -0.88402880172157        3.49682009662802       -0.07316229759537
O           -1.22802672576729        0.89026370370647       -0.59500250961244
O           -0.10644757909091       -0.19934671475074        1.37050821695792
C           -1.32795516048048       -1.47474133712100       -0.60773355936426
C            0.10922284226248       -1.51741892097157       -0.51145737994655
C            1.97697625780278       -1.07954644673958        0.90423541072553
C           -3.32422392856241       -0.12730850409117       -0.50031734974212
C           -4.12122212755269       -1.24239296261599       -0.41586920228552
C           -2.12624709610910       -2.63005913886312       -0.63982958612859
C           -3.49170974977917       -2.51086084213797       -0.51357715849730
C            0.96596836029129       -2.12604928392091       -1.45071723430644
C            2.31649744729026       -2.13225107136585       -1.21062069876925
C            2.86209663520586       -1.64125809584954        0.00043681801614
H           -4.10564158097037       -3.39257400769935       -0.43167820442902
H            2.99362262128322       -2.50309266803426       -1.96282596071436
C            4.31442826899234       -1.68700699973921        0.18600509972834
C            2.33761652850127       -0.75359747167582        2.33767445776436
N           -1.96500805061285       -0.24724879527182       -0.55337020811312
N            0.67097978390546       -0.93914788850404        0.59820326246619
C           -3.87048352605761        1.27221318841997       -0.68219530002160
C           -5.56561288397088       -1.19500529557657       -0.15210660722299
F           -3.24798417346321        1.92051802012080       -1.67087855458145
F           -3.80249953716530        2.02224224615078        0.41882172318889
F           -5.16312019347011        1.25980881042327       -1.05139281081695
F            2.64706866948774        0.51951747671154        2.57919760368843
F            3.40261607283405       -1.47777571257614        2.73938664283726
F            1.36320246430624       -1.09816974216458        3.18303426100076
C           -6.05075593446319       -0.46331072744741        0.93051784401741
C           -6.45136988263483       -1.93783431381183       -0.92730209044377
C           -8.28103497493423       -1.19414558478989        0.43314911531941
C           -7.80329136562329       -1.92871417972533       -0.63926030301938
C           -7.40212934688605       -0.46578511379144        1.21793274271210
H           -5.36498042971170        0.09638838530807        1.54940815430990
H           -7.76947284415929        0.10404833041168        2.05760191072242
H           -9.33704447853842       -1.18947440239353        0.65712191255008
H           -8.48596322808205       -2.49592492522529       -1.25422102269360
H           -6.07945855963708       -2.49884584608648       -1.77213632475625
C            5.03582929388593       -2.81561162469267       -0.20067031822854
C            5.00695975219365       -0.58055074419032        0.67463161456954
C            7.09178839459794       -1.73121362829666        0.39046848099834
C            6.38385449759620       -0.60457709845740        0.77381432726858
C            6.41283957819577       -2.83736182351754       -0.09269914347888
H            4.51058765321345       -3.68825924304565       -0.55997875068815
H            6.95900836493924       -3.72135367447760       -0.38602712496446
H            8.16819666145880       -1.74837977404901        0.46983506181057
H            6.90733022529065        0.26101814568137        1.15039193014415
H            4.46304786151030        0.30633850792827        0.95453768944270
C           -1.52262702603154       -3.99977107956186       -0.67066037132643
H           -1.57042556782670       -4.40877870441025       -1.67853865944432
H           -0.48741893412697       -3.99160197106892       -0.34479033897117
H           -2.09050144198792       -4.66100853538904       -0.02079886789760
C            0.43860818693099       -2.63789752581248       -2.75471613966848
H            1.05584144524387       -2.25883616880034       -3.56628015825517
H            0.48752534296462       -3.72484815378902       -2.78902658524092
H           -0.58772229163662       -2.32374344707250       -2.91780499632324
