77
 energy: -148.135312851514 gnorm: 0.000572568556 xtb: 6.5.1 (b24c23e)
Si          -0.48848697743900        1.00921629029823        0.62431327751416
O           -0.09760415717416        1.99791170522775       -0.58768299356160
C            0.13741008332495        3.38986682191037       -0.59854863537493
C           -1.06242405954944        4.16971762281702       -0.12768989840034
H            0.99495311351693        3.60730871870868        0.04889033227285
C           -2.34184397253427        3.74394042403165       -0.45566767526853
C           -0.89863367085568        5.32614133521139        0.62179350740656
C           -3.44584081385472        4.45782557301782       -0.02574817897765
H           -2.47134958577409        2.83973932064111       -1.03105713794533
C           -2.00299047016128        6.04422232406867        1.04290669846993
H            0.09592902175781        5.65273220271091        0.88783849751649
C           -3.27826346464778        5.61035429858959        0.72208936600031
H           -4.43715171763359        4.10932997875011       -0.27451802684722
H           -1.86806180753811        6.93934567003980        1.63208085053188
H           -4.13995655507786        6.16734865775702        1.05980476352894
C            0.46715161862404        3.77082750281112       -2.05344035775692
C            1.62144158518102        3.05731765288017       -2.55441013271936
H            0.64535602146461        4.84790143324376       -2.10454811241844
H           -0.39598845545865        3.52138451394134       -2.67588614150694
C            2.56363110891968        2.45292578789501       -2.97764871979483
H            3.38718852967980        1.93606469184686       -3.37181049746714
Cl          -2.32758191229863        0.38060611248576        1.37073105331403
Cl          -0.15481842185221        2.31267701920471        2.26401449761599
O           -0.69688900564999       -0.18156007838886       -0.83574689729799
O            0.69054989301358       -0.07355820876290        1.26377355020889
C           -0.23867738864199       -2.31237643284483       -0.04952578011895
C            1.15700051562771       -1.95144239022073       -0.09834072308675
C            2.84295367214933       -0.30524089646657        0.40839387914734
C           -2.44403199825455       -1.67776173741787       -0.71667728806808
C           -2.98823843248077       -2.83344819737738       -0.19298276142664
C           -0.74465264977967       -3.52485755023396        0.45486639060764
C           -2.10146080475718       -3.74527960036252        0.42400955274248
C            2.11053201875388       -2.68216607129486       -0.82585699126303
C            3.37581305500248       -2.16588552008096       -0.99081510944291
C            3.76692302416071       -0.94268792587316       -0.38394138586522
H           -2.51490247202355       -4.62235886245103        0.89569399114848
H            4.08155800219451       -2.66548149004448       -1.63378771873239
C            5.09534028314463       -0.39972345256073       -0.69402816861236
C            3.18471787922616        0.85256217679882        1.31999901983622
N           -1.12887010333590       -1.40331510364509       -0.56084750654268
N            1.56686201401279       -0.77669116760807        0.50564586622285
C           -3.17715678563173       -0.77263234103307       -1.68488484921773
C           -4.43202058061662       -3.08745335316231       -0.15776440007110
F           -4.22683533499218       -1.40923711993769       -2.23639684052523
F           -2.38749154959896       -0.46263477149207       -2.72470216923997
F           -3.65229075590272        0.37400747412128       -1.20660373112978
F            2.77147899613589        2.03727518108910        0.85678296974308
F            4.51060039872035        0.96843052251206        1.51011762543794
F            2.68762298383739        0.69025898117458        2.54715122289566
C           -5.28983006656364       -2.09151553913881        0.30788921785405
C           -4.95046699694619       -4.32897437314230       -0.51520436023670
C           -7.15995052183976       -3.56894895098010        0.02486456842069
C           -6.31011727277902       -4.56322916676716       -0.43080322075399
C           -6.64654218865744       -2.33717697634126        0.39757955588599
H           -4.88092486240906       -1.14189722990464        0.61983784969789
H           -7.30531453548624       -1.56377835202642        0.76182697556835
H           -8.22128340487406       -3.75541797264781        0.09166426735309
H           -6.70791034318491       -5.52405336308593       -0.72190807161640
H           -4.28831259354794       -5.09881939967202       -0.88400236613673
C            6.22150491478200       -1.21725413004993       -0.64218112752693
C            5.23096484908382        0.92135412994181       -1.11882991061436
C            7.59063275667347        0.59711785939693       -1.40827726768018
C            6.47257748834632        1.41250101026828       -1.47369526493053
C            7.46220007180203       -0.71683601570281       -0.98990415760236
H            6.12494364354783       -2.23735338581209       -0.30057083979120
H            8.33184220895137       -1.35435912651920       -0.93326345512654
H            8.56016834262475        0.98528845651510       -1.68154244031773
H            6.56683750263433        2.43680154570920       -1.80129016188036
H            4.35951948405646        1.55700602415575       -1.17772795897954
C            0.14943953945465       -4.50616251335385        1.14654397996885
H            0.24384339993298       -5.41806794332983        0.55947433312279
H            1.13674405742814       -4.09008327321255        1.31987667615542
H           -0.28869374921367       -4.77750288081477        2.10468315425092
C            1.74865791736152       -3.94737115196738       -1.53980707255172
H            2.23816605120100       -3.96957884991111       -2.51038346276660
H            2.09775109663969       -4.81049369296483       -0.97537201383528
H            0.67674029605193       -4.03475046117320       -1.68507150942445
