77
 energy: -148.148853624128 gnorm: 0.000624534565 xtb: 6.5.1 (b24c23e)
Si          -0.54126880837848        0.94919547111259        1.16109143817610
O           -0.81592437400660        2.51985788039691        1.32193578890398
C            0.03536950625375        3.60791278065488        0.96521739696118
C            0.59234139579266        3.38784226791004       -0.41665348761771
H            0.85884006371811        3.62818414194858        1.69146168444220
C           -0.25597544572803        3.35361415430660       -1.51613935634400
C            1.94556685351977        3.13204728826825       -0.59382669356038
C            0.24421620833517        3.07419006288778       -2.77441658069046
H           -1.31261450896774        3.52512208581353       -1.38529860394160
C            2.44567283938234        2.85145418660095       -1.85322232755733
H            2.61009608190641        3.14517691332171        0.25771310866870
C            1.59586472013440        2.82344383378178       -2.94526868036506
H           -0.42630724025713        3.04477900519338       -3.62012962752014
H            3.50002748708216        2.65084385822499       -1.97625021141890
H            1.98415623112145        2.60402803657166       -3.92916610147589
C           -0.78490556279060        4.89808477041751        1.08512361644803
C           -1.05087416139534        5.21329639662303        2.47317182225448
H           -0.22868452770636        5.71670588505115        0.62069123771157
H           -1.73308247417175        4.76562162409009        0.56025201341878
C           -1.24646692746275        5.44510363191465        3.63031323144063
H           -1.43275190583319        5.66434306871057        4.63884568808320
Cl          -1.90211347387047        0.03367569399493        2.28976999661845
Cl           1.37418684672221        0.55766841071278        1.65160080799336
O           -0.73812924894672        0.54413708800606       -0.41795995733288
O            0.98748379161019       -2.63317075147672        1.17267005228746
C           -0.68763825174179       -1.82425480945383       -0.75897421963100
C            0.76029828550682       -1.68359153006906       -0.88423756658558
C            2.87305746134359       -1.92683383144773        0.13555347593417
C           -2.75169256022706       -0.61620406921665       -0.90862111339891
C           -3.46199544188444       -1.71501284486705       -0.47175717128380
C           -1.37790671923696       -2.97955834435699       -0.43742870526540
C           -2.76195228565642       -2.90421714735679       -0.24321133461584
C            1.34356676097484       -1.00011673833471       -1.95609476065148
C            2.69608079147820       -0.71955237369053       -1.91203272251702
C            3.47911918575839       -1.15317956339362       -0.84394915655713
H           -3.30287489471696       -3.77527809981849        0.08666028270699
H            3.15430300124598       -0.14166031425719       -2.69808812046727
C            4.88067102835109       -0.71123340518544       -0.75828902026667
C            3.62419568457609       -2.61559403149003        1.24923674659747
N           -1.36909745381344       -0.63890056018321       -0.98531650659928
N            1.52352759025112       -2.11348786282844        0.16505572533226
C           -3.35502752430832        0.65805783613077       -1.40705415166915
C           -4.91738219381009       -1.66523532157177       -0.25757433260560
F           -4.56683519489383        0.48775313072199       -1.95875484030575
F           -2.59527964623519        1.21744807290128       -2.36662135276259
F           -3.51088393628081        1.61259410671318       -0.46663082759138
F            4.93552019804857       -2.74129678976704        0.97302313277142
F            3.19562138559726       -3.87056373823922        1.43820713806386
F            3.55010963201751       -1.98658646942628        2.42741239496425
C           -5.46249811306151       -0.70503587039943        0.58991624595670
C           -5.75174591916953       -2.60032086827619       -0.86113666756660
C           -7.65419713421399       -1.60195013398178        0.20419207473558
C           -7.11511802248064       -2.56254604479634       -0.63517290358138
C           -6.82553932945062       -0.67832014713903        0.81904218052598
H           -4.81397095497096        0.00331424259471        1.08298937699905
H           -7.24121052673162        0.06717474449507        1.47990257570366
H           -8.71914249476360       -1.57452906348848        0.38014575215625
H           -7.75869783300625       -3.28446611275767       -1.11557795427632
H           -5.32915182263154       -3.34164127276654       -1.52333640692617
C            5.76698871599670       -0.93905398106817       -1.80490497571197
C            5.30135617941679        0.01196764710760        0.35492045617189
C            7.48362638061766        0.24021104268165       -0.61560831547008
C            6.59811846552476        0.48530630544960        0.42108118779572
C            7.06631176188905       -0.47205407857405       -1.72731821184172
H            5.44095247459489       -1.50380064453143       -2.66607860451419
H            7.75488631166932       -0.66545153322729       -2.53635802365586
H            8.49850752745482        0.60392898642991       -0.55692412211620
H            6.91935685494603        1.04456816592041        1.28674982378014
H            4.60498346040939        0.20704987909690        1.15717555248207
C           -0.68167162766642       -4.29233779560921       -0.32235627446674
H            0.05141055114438       -4.41541599309209       -1.11733200258562
H           -0.14626812187915       -4.33041823803566        0.62860970109480
H           -1.39630439127245       -5.10903450545609       -0.35937024051429
C            0.52084004710302       -0.56896954840609       -3.12483192543338
H            1.15698664790604       -0.40773108693326       -3.99073784288266
H           -0.23639220404081       -1.31143109435248       -3.36502595631537
H            0.01460984824992        0.36781391256444       -2.89592374872662
