77
 energy: -148.137417763947 gnorm: 0.000437465098 xtb: 6.5.1 (b24c23e)
Si          -0.08006612562840        1.51961453004004       -0.31188193672302
O           -1.57709614640456        1.24503725732664        0.27754733920935
C           -2.30819188541329        2.07073586479075        1.16395947822736
C           -2.81225331002425        3.31809078708593        0.48590906699121
H           -1.65222801635107        2.35245320610426        1.99527960152773
C           -3.10340953240394        3.32193824909388       -0.86979777417325
C           -3.00173898132766        4.47666155577730        1.22755501090677
C           -3.56794077582263        4.47358447751483       -1.48016810272982
H           -2.94647780989957        2.42777245704394       -1.45244090490772
C           -3.47351997899791        5.62437627832817        0.61831147673894
H           -2.76221993568298        4.48069382961791        2.28100115554966
C           -3.75630461488987        5.62560929417743       -0.73752038549085
H           -3.77947853774625        4.46878847185693       -2.53904444125296
H           -3.61096896295443        6.52347489327239        1.20087864396817
H           -4.11538848308957        6.52564988699603       -1.21465679230140
C           -3.48974887514095        1.25756323614644        1.72223663971744
C           -3.01925814956859        0.05406291576182        2.37047703123405
H           -4.02421202496424        1.88036850867643        2.44389881159701
H           -4.17075673999176        1.00406847735414        0.90793038593593
C           -2.58401848396658       -0.93799419829446        2.87934941700722
H           -2.23184256719855       -1.80386756371988        3.35424651053814
Cl           0.46872879684600        2.23855772467898       -2.14421276587240
Cl           0.35708621352766        3.29508177758173        0.75525604684931
O            1.07267136199933        0.66081403628063        0.66014412241634
O           -0.29965659585704       -0.07852008935898       -1.30054860807200
C            1.57488684364142       -1.51441579868134       -0.12188732410399
C            0.19133579927763       -1.88507008513336        0.03913190174641
C           -2.03701961466202       -1.52868486632316       -0.73151413365576
C            3.25466889084828        0.20944355850555       -0.02318645685613
C            4.19033396130888       -0.60841294808331       -0.60783074593580
C            2.53586247499995       -2.39912982575045       -0.64318989148847
C            3.80512101353747       -1.94014950876612       -0.90840574346184
C           -0.24319899561769       -2.98692532346785        0.80099036261096
C           -1.57082219159881       -3.33654616237441        0.76697624242683
C           -2.49233640553000       -2.63170888320134       -0.03724718730621
H            4.52034870017403       -2.58032041938804       -1.39819620724897
H           -1.93533414831009       -4.15565109549393        1.36680589469667
C           -3.88482688638529       -3.12174005320760       -0.09844725494457
C           -2.97805268662692       -0.83260711893354       -1.68993905325757
N            1.97339117396325       -0.22095543985043        0.16757566921626
N           -0.74244956660498       -1.15385897056359       -0.66074743002447
C            3.60249827242399        1.56677094773286        0.55141259931266
C            5.53628957393866       -0.16574808282647       -0.99812141174641
F            3.02795899656735        1.77843752746807        1.73633124883425
F            3.29432317995888        2.58207483887564       -0.25602474705150
F            4.92262043536701        1.66811397950942        0.79785899376799
F           -3.98674051838624       -0.20576097623410       -1.06883241976996
F           -3.56371938661724       -1.75938738688156       -2.48391633010702
F           -2.44121469164304        0.04877237224348       -2.51873226053521
C            5.69934464757582        0.96431035414726       -1.79686321405787
C            6.65271326463108       -0.91258141020604       -0.63259190328737
C            8.07252021610788        0.60868257513002       -1.82388624652035
C            7.91471664472429       -0.52005793216152       -1.03711135716773
C            6.96330309745168        1.34539890510562       -2.20542952774801
H            4.83487354476651        1.53378882987431       -2.10423650268648
H            7.08139316287404        2.22244940218303       -2.82308575385739
H            9.05891637757897        0.91347005253753       -2.13931403525733
H            8.77714088082603       -1.09603647729758       -0.73634497923763
H            6.52898993081062       -1.78462863128538       -0.00717170824582
C           -4.14752092396295       -4.33294869024218       -0.73138195744707
C           -4.92174791737379       -2.43051469352144        0.51664561439760
C           -6.47045777361812       -4.13075416183984       -0.17291096208432
C           -6.20870375314272       -2.93645884474607        0.47627818555766
C           -5.43702232862199       -4.82917280735454       -0.77456869165583
H           -3.34000649991544       -4.87200904675186       -1.20486903406754
H           -5.63464033940057       -5.76328129163263       -1.27857471761363
H           -7.47706303232426       -4.51939586088317       -0.20679325581390
H           -7.00869350219831       -2.39340812823880        0.95613758796907
H           -4.71116763083813       -1.51240468459982        1.04175664318563
C            0.69111320375911       -3.71033360632594        1.72031505534644
H            0.82596593511915       -4.74162151780998        1.39984393264119
H            1.65862626626951       -3.22164031340020        1.77217436662263
H            0.26094637333449       -3.73517860677827        2.71981729682136
C            2.18349935718659       -3.79736455239566       -1.04844725691265
H            2.55643163118924       -4.50866681762867       -0.31355213190973
H            1.11196752675039       -3.93199949299153       -1.15401183020403
H            2.66089057736342       -4.02733869419909       -1.99808295875962
