77
 energy: -148.135268930525 gnorm: 0.000950379967 xtb: 6.5.1 (b24c23e)
Si          -0.11732251386061        1.09886629197527        0.65771009693853
O            0.56246817946951        1.85881779314512       -0.59339509731246
C            0.99345207926082        3.20079923332344       -0.69696764307296
C           -0.11766793946205        4.16049856852136       -0.35817359094694
H            1.83763881100732        3.35026056925731       -0.01314375938374
C           -1.40846128565701        3.89705344464420       -0.79562110356704
C            0.13075950640200        5.30541735838620        0.38473014221066
C           -2.44355615563592        4.75713878096016       -0.47831901987353
H           -1.60241098025063        3.00267506253878       -1.36822916139485
C           -0.90325392856031        6.17163950512087        0.69177740731999
H            1.13185685140557        5.50723085335658        0.73585623671109
C           -2.19163495355124        5.89755237281991        0.26478843069401
H           -3.44616049656096        4.53082113990224       -0.80890713819766
H           -0.70441556869699        7.05745692997699        1.27683768343110
H           -2.99927323772621        6.56926877469391        0.51639608017422
C            1.44195976906485        3.42461929121401       -2.15133928310373
C            2.56268671113625        2.59081252863113       -2.52593546454557
H            1.71242071846692        4.47682847127669       -2.27412273377433
H            0.59821083403376        3.19498216012054       -2.80697076283327
C            3.48225857236974        1.90381547531188       -2.86504019962068
H            4.29146962838380        1.31404178559609       -3.17873079528322
Cl          -2.07086383172194        1.01960440662790        1.37935457773539
Cl           0.50357335858851        2.38383619141573        2.22697293415848
O           -0.61545590063163       -0.09687573156855       -0.72620954679324
O            0.74335748379765       -0.19890347945022        1.39268387436093
C           -0.70032046066802       -2.21722535883087        0.19726017949625
C            0.74119850264269       -2.21282767645303        0.15477054339758
C            2.77872605601454       -1.00506213787248        0.59997119614544
C           -2.68370744094609       -1.11205025338600       -0.54655534634201
C           -3.48931471954824       -2.07407519921659        0.03046964412144
C           -1.48359069352665       -3.23736744339698        0.76771715414201
C           -2.85326628233059       -3.13062768830070        0.72018505051317
C            1.48869461892523       -3.20539198983039       -0.50013377389026
C            2.84503585855964       -3.03496612965495       -0.65818534370649
C            3.52254205541096       -1.90848365556584       -0.12021597793582
H           -3.46871072163415       -3.85213778933059        1.23323797210975
H            3.41139742305272       -3.73791999938077       -1.24649016638435
C            4.94810007571000       -1.73975972762385       -0.42799613139313
C            3.38619921764908        0.10043019479228        1.43575921711547
N           -1.34057194441650       -1.15280367230065       -0.38699262870607
N            1.42532547705265       -1.13989605240169        0.69572823977106
C           -3.21317067896591       -0.11691898728377       -1.55900010005506
C           -4.95418577460313       -1.98969064626228        0.03319419294503
F           -4.29667808400253       -0.62651823723049       -2.18148701339293
F           -2.33481304088061        0.10505947489626       -2.54352655297749
F           -3.58605780904326        1.07536243123719       -1.09927707889462
F            3.26726627204001        1.31281312860326        0.88509004326921
F            4.70088255936321       -0.08869633386618        1.64284362849840
F            2.86234225092126        0.14715735797401        2.66219684756091
C           -5.57669448822552       -0.80998409209592        0.43779073240389
C           -5.73006667714582       -3.09713488684818       -0.29863776709823
C           -7.72436953782677       -1.84136513542388        0.14364371652545
C           -7.10906799926748       -3.01805800576139       -0.25059874958897
C           -6.95609375325152       -0.74239383275731        0.49165585602819
H           -4.97423609483552        0.03579216956391        0.73311806063665
H           -7.43245703607856        0.17261549484987        0.80887750565453
H           -8.80172311195156       -1.78269740693891        0.18246254930320
H           -7.70532896759218       -3.87660973384176       -0.52162912718866
H           -5.24860560525629       -4.00960616964074       -0.61912381461552
C            5.83293873359176       -2.80481107088981       -0.28209895176109
C            5.41357239381449       -0.53163518858206       -0.94469277781372
C            7.62017474697500       -1.45326988278989       -1.13779340527545
C            6.74235080909664       -0.39328004751735       -1.29632063395755
C            7.16304211600584       -2.65704823335227       -0.62824470862489
H            5.48055469837799       -3.73877227014883        0.13047423616420
H            7.84520909757613       -3.48391916211205       -0.49873149417561
H            8.65889822265862       -1.34079050583438       -1.40925379573613
H            7.09548448495131        0.54660703913967       -1.69316502893277
H            4.72650549883850        0.29184684036967       -1.07290953108959
C           -0.85421879592588       -4.35421493222922        1.54052028935837
H           -0.97994708593245       -5.30062600400502        1.01768209471000
H            0.20351168628815       -4.17637524781685        1.70607280175305
H           -1.34848494405246       -4.44514094130784        2.50544841620055
C            0.82905257149568       -4.38271020174909       -1.14829320138255
H            1.29962036178128       -4.57973012132464       -2.10808061333896
H            0.95493879920601       -5.27085604325091       -0.53231004774005
H           -0.23073555117581       -4.21411781482566       -1.30568156985940
