77
 energy: -148.146518681469 gnorm: 0.000444082591 xtb: 6.5.1 (b24c23e)
Si          -0.39960519749042        0.76646806283992        0.74345267706191
O           -1.10763102831585        2.18492769650624        0.54572537301662
C           -2.39213935826919        2.64937518184532        0.17199941936018
C           -2.23538056579832        3.92096552349577       -0.62442398542200
H           -2.88930244550994        1.88848083695046       -0.43494152698874
C           -1.24717249583633        4.83813345671744       -0.29407705207810
C           -3.10737888070191        4.20159593155405       -1.66780914006910
C           -1.13112675706422        6.02159941739210       -1.00122014390094
H           -0.56305216644595        4.61160188058532        0.50943574659070
C           -2.99406761424288        5.38882612609052       -2.36919354523969
H           -3.87429136189313        3.48676784782027       -1.92935201497783
C           -2.00645166482758        6.30092218764790       -2.03680822113925
H           -0.35710271544944        6.72825693358957       -0.74093305036116
H           -3.67581838828534        5.60073715586363       -3.17951093368367
H           -1.91757146459976        7.22616815193810       -2.58656189663155
C           -3.23728377010289        2.93339323537173        1.42868127458215
C           -3.68512308589201        1.72181849426352        2.08036151696865
H           -4.10676464789096        3.52660280603895        1.13292974632490
H           -2.63282887645925        3.52081363911977        2.12518061140170
C           -4.05256572843032        0.71760145582673        2.61733215008567
H           -4.36743781858276       -0.15399682498955        3.10890181375240
Cl           1.52659918366674        1.31702458237439        0.70353948211692
Cl          -0.92558299024000       -0.24429334933306        2.39121697917108
O            1.84472207490326       -1.81379770677212        1.99672029204370
O           -0.68120294238399       -0.17573939837630       -0.57488452414813
C            1.49065157579365       -1.91280108357785       -0.24934373112469
C            0.12667829270308       -2.36320973156508        0.01484242229519
C           -2.17793583828395       -2.01116378180230       -0.53066773993949
C            3.58045503158813       -1.27856415740423        0.64705506600856
C            4.05182340438512       -0.90921332181394       -0.60361473562227
C            1.94393940852901       -1.62618007686081       -1.54048869407696
C            3.21572558492580       -1.10781073379726       -1.70072028403668
C           -0.22130280824623       -3.43974678414128        0.81309446644306
C           -1.57753916679345       -3.70952641650973        1.02697061973100
C           -2.57281257256722       -3.00424703000456        0.34301316158092
H            3.57034792233228       -0.83747196543979       -2.68239821990028
H           -1.86330089949124       -4.48750222881721        1.71495958291158
C           -3.98782819749979       -3.35294680501746        0.54721272868193
C           -3.07261731598136       -1.33341459441635       -1.51825384311938
N            2.29436544087044       -1.68648596934844        0.83300635988746
N           -0.85130821665539       -1.62201981557717       -0.62645173620439
C            4.41163393981145       -1.26125037931264        1.90723865058994
C            5.35708568454669       -0.26025521468060       -0.81024019818807
F            5.73130271419310       -1.22999257285959        1.64976338020130
F            4.23631481510085       -2.37302042354944        2.63556269743025
F            4.16092549938374       -0.21775705810353        2.70557954376351
F           -3.68569564199296       -0.22122421887584       -1.05227795156580
F           -4.05945484224045       -2.12736360907656       -1.96449313424461
F           -2.39605943417610       -0.93835451065676       -2.60835348962045
C            5.64088117403265        0.93600971042820       -0.15709675212811
C            6.27858686439702       -0.79103239040630       -1.70581135376961
C            7.76410544881850        1.04002616221324       -1.27038857073282
C            7.48152285154321       -0.14585542364027       -1.92674038347763
C            6.84075842655434        1.58078320479118       -0.39070568140041
H            4.91180049890740        1.35822060416071        0.51843589934894
H            7.05624545192714        2.50848590839023        0.11729777585157
H            8.70331302953009        1.54309609249981       -1.44532168575563
H            8.19935555333887       -0.56992305647621       -2.61302645191490
H            6.05824411956702       -1.72114786838322       -2.20918838772438
C           -4.39514477205475       -4.68248131480232        0.48466480215280
C           -4.92277281787875       -2.36668554785489        0.84840254128980
C           -6.64465362703280       -4.03121857630913        1.00086523443570
C           -6.24330247468573       -2.70806412061589        1.07539359283159
C           -5.71803603592304       -5.01702938836784        0.70488024233357
H           -3.67396610093094       -5.44866680924785        0.24123192218525
H           -6.02699233114530       -6.05001972931506        0.64519980767242
H           -7.67753286892694       -4.29413166128407        1.17338985655344
H           -6.96120058243965       -1.93613697456959        1.30919957960082
H           -4.61180117331579       -1.33521422354316        0.92094581772428
C            0.81185642176179       -4.32694296737649        1.41838190268849
H            1.61629988239668       -4.52803166096489        0.71328380410248
H            1.25024439163348       -3.82575764676111        2.28413416718951
H            0.36993981048660       -5.26569468276249        1.73902420645888
C            1.07486466830791       -1.87035094068854       -2.73017693207597
H            0.51944141248993       -2.79945921402431       -2.62567719754837
H            0.35306782177695       -1.06187340081864       -2.83656379039199
H            1.67715228277980       -1.91033192540390       -3.63354993520557
