83
 energy: -129.034224963358 gnorm: 0.000477994971 xtb: 6.5.1 (b24c23e)
Si           0.08379407822314        1.13535860605124        0.66090221387310
O           -1.32899945628273        2.21107765123109        0.37642757338914
C           -1.58352705609941        2.95304570067690       -0.62367399348785
C           -2.76878301376346        3.71763345170246       -0.73237925859623
H           -0.85258969707297        3.00837768320363       -1.42961599613898
C           -3.72477993381250        3.74244674308987        0.30485871644064
C           -3.01156246773022        4.48142464825595       -1.89245172015472
C           -4.87014657735985        4.49238978681668        0.17546291411589
H           -3.52907294388685        3.17059547185841        1.19813916505687
C           -4.16187516647845        5.22669004547064       -2.00633232997294
H           -2.28145160299366        4.47024583703421       -2.68840873960161
C           -5.09781772207967        5.23580480235391       -0.97747592977319
H           -5.59671899399571        4.50765486606396        0.97448786433844
H           -4.34105980627026        5.80994240163399       -2.89800185297028
H           -5.99810635408202        5.82396596973140       -1.07319871083612
C            1.91442540880379        4.37104752674679       -0.73542388010746
C            1.58675413405032        3.11734253303260       -0.76149312675530
H            1.31954191713151        5.12787893874267       -1.22122158156875
H            2.79484568407640        4.70963457070211       -0.21456549619778
C            1.22915025227327        1.87615771049047       -0.70980977639331
H            1.56555955563162        1.20115709049652       -1.48767547836230
Cl          -1.21571768346163        0.02095590989855        2.03180260394458
Cl           0.71859262841724        2.44785275335085        2.23516505368734
O           -0.50870192256435       -0.01124035588640       -0.74117521215138
O            1.37178551587342       -0.13736383204655        1.16973487897116
C            0.09492303889916       -2.15352318372270       -0.23689494097571
C            1.50469035855892       -1.81614257201491       -0.39596087972172
C            3.45983029981845       -0.65975977740112        0.31398858283533
C           -2.19499394851565       -1.61108601769573       -0.54497225995344
C           -2.54737805029171       -2.89437524590893       -0.15017316059536
C           -0.24009486903026       -3.46562107808388        0.07812840845723
C           -1.55999046701383       -3.82942496811839        0.18077991619575
C            2.27344603265743       -2.61226953736607       -1.24290594502778
C            3.61593038532252       -2.37588605400210       -1.38433375263018
C            4.22679794236507       -1.38807482665878       -0.59303309219238
H            0.55210008374042       -4.16505799687955        0.29300679411405
H           -1.84508138370033       -4.82076338756900        0.49426902594712
H            1.77927366961732       -3.38359361678983       -1.81228339758126
H            4.21087404809504       -2.94242472960417       -2.08249906059038
C            5.68018125124274       -1.19704415408513       -0.74620505411013
C            4.14029417922681        0.18105540655541        1.36601242621544
N           -0.89183954612159       -1.25191175062213       -0.50485037865417
N            2.11772070905522       -0.83742741527890        0.33697788540616
C           -3.26141052992165       -0.69925817820513       -1.10368285656424
C           -3.96493604724880       -3.31043752553003       -0.04740420555626
C           -4.68314955199251       -2.99449873323086        1.10054233379039
C           -4.56700411954485       -4.06361896404091       -1.04816599130533
C           -6.59684609569781       -4.14922442170494        0.22722068803865
C           -5.88069600917405       -4.47642097553340       -0.91174049215876
C           -5.99526287305456       -3.41208055548213        1.23355321015750
H           -4.19989267175576       -2.43283430661249        1.88593167103169
H           -6.54861892528936       -3.16322246022895        2.12664058051425
H           -7.62134473937273       -4.47358998599572        0.33235323697353
H           -6.34455373095749       -5.05759347008713       -1.69497754263702
H           -4.00460749639113       -4.31872716274879       -1.93520429724088
C            6.53443109612121       -2.29178377351556       -0.63592725127582
C            6.21721646260520        0.04757704204460       -1.06759216164997
C            8.42227221997096       -0.89720242703956       -1.13024722769372
C            7.57839686760691        0.19390445940135       -1.25752476351982
C            7.89631139646758       -2.14003030317747       -0.81942905006911
H            6.12645460188700       -3.26008087765992       -0.38385082738026
H            8.54908182442951       -2.99465836239629       -0.72031576613804
H            9.48554921265498       -0.77998402061954       -1.27566235095075
H            7.98198661939788        1.16356511365323       -1.50791349916630
H            5.56041112715991        0.89584395368321       -1.18273766534003
C            3.94615690443934        1.68899747480157        1.20026116851689
C            3.71746899162035       -0.25827671584140        2.77232251139052
H            5.21001077012365       -0.03303150791473        1.26195034053833
C           -2.79817724353299        0.09178096219261       -2.32915345313834
H           -4.06416131838321       -1.37054664111585       -1.43576596047141
C           -3.85739968450258        0.22890508177969       -0.04300807361466
H           -3.66464134997420        0.54588952870685       -2.80484256529417
H           -2.10757381179076        0.88126861448907       -2.05164508244315
H           -2.31198496584594       -0.56292479997696       -3.05081707708150
H           -3.08331227480360        0.82127076112736        0.42692667623007
H           -4.58158940704339        0.89353138556999       -0.50885000787080
H           -4.35660180111009       -0.35024286137114        0.72816209100438
H            2.95187532378019        1.98854847524720        1.51194676194708
H            4.66899822063341        2.20817330380183        1.82434354654451
H            4.09477801847146        1.99637902772049        0.16849094228255
H            2.68394371536549        0.00961459102443        2.96696883494370
H            3.83931817368490       -1.33353142110931        2.89418071318754
H            4.34487059049005        0.24695907043179        3.50133784358593
