83
 energy: -129.127031638287 gnorm: 0.000457388828 xtb: 6.5.1 (b24c23e)
Si          -0.02645048282168        0.94571546009718        0.58324537304934
O           -0.17463829603737        2.49330879363907        1.02055398105268
C            0.24411510893026        3.70332102281963        0.42312707605714
C           -0.74907079307389        4.10401194673089       -0.63675786757934
H            1.23216358951113        3.56044145351133       -0.02739115375220
C           -2.09995243576615        4.17600898576344       -0.32004736565867
C           -0.34012958905678        4.36117679348606       -1.93732366891687
C           -3.02910671251279        4.49977888267165       -1.29201499725175
H           -2.42034071544579        3.96073883625914        0.68858886054493
C           -1.27086006819743        4.68809436886462       -2.90837529177334
H            0.70719730183977        4.29103603543273       -2.19118867278673
C           -2.61594246535175        4.75693708138168       -2.58832446552072
H           -4.07780998500422        4.54914157704399       -1.03715309391942
H           -0.94473077542313        4.88214335116838       -3.91971424441016
H           -3.34162442282229        5.00666523354039       -3.34877087389906
C            0.34132812323522        4.76212563827872        1.53339076760365
C            1.41255313981895        4.44504809590095        2.45243508894726
H            0.52148539161397        5.73809364835082        1.07468348013890
H           -0.60438455407642        4.79194922686038        2.07891967913509
C            2.30583014932522        4.14419605330290        3.18932667744969
H            3.07935714509827        3.89762515337119        3.85296037884348
Cl          -1.30155036655392        0.46292739623861        2.23961742970004
Cl           1.33952498652134        1.36420589424351       -1.13084066733816
O           -0.94454591965249        0.11143947819445       -0.58463586791312
O            1.01445417715169       -0.24406880830970        1.21508402091564
C           -0.50165311114804       -2.14957976804786       -0.18097665852236
C            0.92134758630962       -2.00465774183691       -0.30437668863546
C            3.03063401413049       -1.04197702285957        0.36321045126020
C           -2.76288804411995       -1.31764884147320       -0.31069762518918
C           -3.26611540758030       -2.57837508403346       -0.03904734571407
C           -1.02240707391161       -3.44794344412960       -0.02351258936675
C           -2.36225046903611       -3.66115578304816        0.09595683113438
C            1.62820633378881       -2.93436197346323       -1.09014203584554
C            2.98179311916076       -2.85571169814982       -1.22481719624150
C            3.71428084316161       -1.88893167815738       -0.49280365229566
H           -0.32494641253964       -4.26280994693776        0.08578385932076
H           -2.75009423264123       -4.64581446690873        0.30149321091209
H            1.06113605281098       -3.65935241100126       -1.65163607128599
H            3.50996288520710       -3.51616815227379       -1.89374026889590
C            5.17135018456173       -1.83364601471767       -0.68014996799049
C            3.76880412244487       -0.22765359006765        1.39863062389733
N           -1.42497242607154       -1.13144634403196       -0.31840047455993
N            1.68298778042606       -1.09073369610533        0.39184285187846
C           -3.67661016736112       -0.21662855780459       -0.79315420271161
C           -4.70229868530339       -2.85211560215920        0.11525706411606
C           -5.47194849850429       -2.12082210257350        1.01938498482321
C           -5.29900120630025       -3.89385852459549       -0.59116857867630
C           -7.39899724732599       -3.44527723239495        0.47783215820819
C           -6.63952377301650       -4.18298000773553       -0.41486165046209
C           -6.80998057841504       -2.41741203135983        1.19657613591825
H           -5.00530006102490       -1.33625046238637        1.59521727011346
H           -7.39555687015372       -1.84732224040618        1.90236305011925
H           -8.44509276794561       -3.67382047243477        0.61655082336711
H           -7.09316106273702       -4.98726641752469       -0.97524001106051
H           -4.71040053654394       -4.46402963189116       -1.29551637621341
C            5.93571519633843       -2.99393801037762       -0.58128659928163
C            5.80046374727289       -0.63726007841850       -1.02247309013589
C            7.91921697953505       -1.75979124346443       -1.12604234502558
C            7.16435540020770       -0.60372283685594       -1.24262882284261
C            7.30085076686132       -2.95442669933117       -0.79668883832255
H            5.45635263307391       -3.92489702940754       -0.31435866404927
H            7.88443361969619       -3.85899212777059       -0.70780376567806
H            8.98508115265297       -1.73069987825813       -1.29605290739578
H            7.64069147529744        0.32760374213721       -1.51080061878908
H            5.20710613013800        0.25729831899716       -1.13556937909883
C            3.56603118377568        1.28677949433644        1.32594817162089
C            3.41850605661926       -0.75665544503954        2.79657541786512
H            4.83184619573736       -0.42624834528136        1.23086386949811
C           -3.32899381007135        0.14078196451553       -2.24514907656273
H           -4.68334042104428       -0.64561418902752       -0.79589405114172
C           -3.70963778291350        1.03970261936054        0.07597371118887
H           -4.06822049658102        0.84097012139333       -2.62589052257332
H           -2.35132858409513        0.60897457956010       -2.31021935427396
H           -3.33874035931236       -0.74900106197660       -2.87230674882493
H           -2.81718986841070        1.63779028743862       -0.07169418700499
H           -4.57244617222612        1.64082912581836       -0.20226945290613
H           -3.77830232807523        0.78369931909724        1.12908823216306
H            3.62541770232847        1.63585691343448        0.29930480136680
H            2.60375109255427        1.58224820772577        1.73256682891805
H            4.34377961180104        1.77755036262387        1.90648040157431
H            2.37778030321600       -0.56157314260603        3.03829664386554
H            3.60188654630966       -1.82807301786724        2.85764860253291
H            4.04280220774132       -0.25737060909140        3.53311423919863
