83
 energy: -129.127808848655 gnorm: 0.000377031095 xtb: 6.5.1 (b24c23e)
Si           0.09512399350174        1.00652869181360        0.00290683364019
O            0.00465933915530        2.61793630720306        0.01414008791375
C           -0.81772020980681        3.54371872789447        0.68279912455431
C           -2.01949385348420        3.87305757338377       -0.16478490332599
H           -1.14599243461945        3.12222393065370        1.63912379273774
C           -1.90396814889340        3.91725116012835       -1.54788225575708
C           -3.24756823436935        4.13525395044206        0.42640606747705
C           -3.00557160229785        4.21381639195026       -2.33031643427551
H           -0.94977585355553        3.69910729385196       -2.00356084578711
C           -4.34673971154307        4.43810347883085       -0.35714601733149
H           -3.34129621807819        4.09231803085789        1.50188050221454
C           -4.22821404370946        4.47668155066473       -1.73630234425213
H           -2.90872465453505        4.23955916466204       -3.40583719097480
H           -5.30005584386679        4.63874427448851        0.10965234515631
H           -5.08865261310141        4.70860982483879       -2.34704094913073
C            0.02168819229083        4.80774725475934        0.94520039107044
C            1.05801106708551        4.53659569223229        1.91710625602363
H           -0.63511256329611        5.60028212198000        1.31303214793539
H            0.47509870034687        5.12554395024373        0.00323017490516
C            1.89631306316340        4.25865389974942        2.72428445186029
H            2.63974559706563        4.03751478805657        3.43003555212110
Cl          -1.32637643959284        0.71055305591782        1.68073188761097
Cl           1.42488480771422        1.20995750596384       -1.68339810390178
O           -0.68049243979023       -0.18038632443766       -0.94708725354934
O            1.17957642812038        0.11898962532187        0.96402847536041
C           -0.14203057256903       -2.20687614618340        0.07025612317892
C            1.27223137593804       -1.98539095844634       -0.04076957607633
C            3.27503214556106       -0.70499798406185        0.37159673433749
C           -2.43482726946077       -1.61334135163633       -0.39111571795030
C           -2.88013318646952       -2.78069634842285        0.20572889000226
C           -0.59308053713244       -3.44386519334594        0.56680688835763
C           -1.92402635435789       -3.71065618112601        0.68477078045567
C            2.07713996348259       -3.03472017551200       -0.52142290049681
C            3.42430291427724       -2.88213771993192       -0.65630252453879
C            4.05058507493371       -1.69018330887978       -0.21641600882667
H            0.14272694533475       -4.14170515322909        0.93296542225461
H           -2.26631450054724       -4.62206903268152        1.14792682986127
H            1.58810968605343       -3.93277903080867       -0.86312462780543
H            4.02621999198917       -3.65541037116243       -1.10588195489646
C            5.50205202102249       -1.55660424587780       -0.40702961880213
C            3.91854484483968        0.41006709411217        1.16062188608040
N           -1.11291344883448       -1.34051202971177       -0.38810783558484
N            1.93405539429394       -0.85648463182176        0.39650792684253
C           -3.36940737556742       -0.76678637266226       -1.22208195606754
C           -4.30475417095561       -3.10324580847555        0.36842370119223
C           -5.17376107185844       -2.19708235560888        0.97546031411654
C           -4.79248915359430       -4.34887707969651       -0.02018944881952
C           -6.98052749548771       -3.76327142786204        0.76949980503348
C           -6.12246671217587       -4.67270291924405        0.17406079191709
C           -6.50100351260368       -2.52733982312628        1.17251687369036
H           -4.79305208615160       -1.24422391213702        1.31045066055321
H           -7.16391827270932       -1.81937969395211        1.64736843016525
H           -8.01825437723689       -4.01866327850457        0.92342200603079
H           -6.49067143244464       -5.63850729043754       -0.13948153864189
H           -4.12701837141204       -5.05582520200741       -0.49453963247506
C            6.36269079698908       -2.57153918813177        0.00443901862136
C            6.03148790968624       -0.44474168752883       -1.06143600178626
C            8.24281716436864       -1.35469389000505       -0.85491383239758
C            7.39221266652742       -0.34742646470911       -1.28163456222264
C            7.72413542198021       -2.46681609238846       -0.21303074385648
H            5.96079298976406       -3.43511510559452        0.51475555924940
H            8.38268136603681       -3.25599830796687        0.11901244540192
H            9.30591092067501       -1.27546189031055       -1.02633087762523
H            7.79114780280089        0.51621660976167       -1.79256322991719
H            5.36407035808735        0.32709526007787       -1.41316823099195
C            3.62612856583714        1.82951138391596        0.67251567649271
C            3.55096529241278        0.25815355457364        2.64349463152517
H            4.99758545403480        0.24774207374436        1.07504849556648
C           -2.93694255060071       -0.84644795533525       -2.69306420101258
H           -4.35257853944951       -1.24061548050247       -1.14332021126285
C           -3.52225942181905        0.68996905189853       -0.78481400722271
H           -3.66887159574387       -0.32858862772199       -3.30758597752193
H           -1.96930593247793       -0.37591043479864       -2.84101154736855
H           -2.88050260603531       -1.88322154104135       -3.02039631811085
H           -2.65332255587259        1.27849267534485       -1.05981599901488
H           -4.39033804973784        1.12407566751796       -1.27580838181038
H           -3.65631942091565        0.76375024608157        0.29024067275716
H            3.71639196065590        1.89432122088135       -0.40744912672096
H            2.62751066479510        2.15108232594269        0.94965561093669
H            4.33921231549373        2.51422778921680        1.12601585351032
H            2.49471224503131        0.45133800732985        2.80541475228994
H            3.78662834217477       -0.74443432880880        2.99687459415237
H            4.12616865524448        0.97249713954634        3.22689742296302
