83
 energy: -129.132156164788 gnorm: 0.000662475171 xtb: 6.5.1 (b24c23e)
Si           0.06005541485006        1.38926273263565        0.34219727257256
O            1.48821716853993        1.07832385116957       -0.39046400524213
C            2.17195602225331        1.80789883366512       -1.38140556455033
C            2.69673599268946        3.13951959303101       -0.90365338847347
H            1.48985110612297        1.97972008419154       -2.22385079907341
C            3.04999388264602        3.34969274441247        0.41988844104767
C            2.86536178282830        4.16783489890873       -1.82280677595530
C            3.55030127217408        4.57515802702584        0.82377095085968
H            2.91001283439805        2.56269016442049        1.14295221535251
C            3.37288161011964        5.38859986613745       -1.42052817284632
H            2.58169711022460        4.01237617966180       -2.85406899762549
C            3.71601030813885        5.59584815057749       -0.09475450131223
H            3.80655431438596        4.73021754913667        1.86133236531011
H            3.49271486640944        6.18357002457634       -2.14193646361347
H            4.10436081658950        6.55297727823543        0.22101095365002
C            3.35315790638600        0.94000565380502       -1.86121604039392
C            2.89880794762263       -0.19595735931911       -2.63039183810869
H            4.01306468941822        1.55496642010463       -2.47861189438667
H            3.91105224949408        0.59778633511304       -0.98617330646929
C            2.48320184843584       -1.11282560089167       -3.27689586176279
H            2.14523737657513       -1.91498025051291       -3.86115820659871
Cl          -0.02109972326155        2.18329428579277        2.24346856999962
Cl          -0.32066213213388        3.29399875838309       -0.62664018109623
O           -1.34259433428158        0.91589731371636       -0.48614307572445
O            0.15393230426178       -0.20613795039836        1.18268679289264
C           -1.55315653651044       -1.44692276646789       -0.62296261085696
C           -0.17275684968723       -1.76925026579575       -0.50681545067810
C            1.83593871238062       -1.76791861256243        0.80638666147451
C           -3.45425677019157       -0.00742765384822       -0.24562469886211
C           -4.32133187970962       -1.06684197958223       -0.44209631088056
C           -2.45198287061698       -2.47318594829819       -0.99380748939445
C           -3.79662476615650       -2.30190847349918       -0.90149718655396
C            0.39690865718274       -2.76591516109079       -1.33042639437713
C            1.66380514989282       -3.21010464888210       -1.11590461524957
C            2.40155321486105       -2.73831431254435       -0.00655373393498
H           -2.04811442613875       -3.43339218898888       -1.26712969418868
H           -4.47541727702916       -3.10767523628185       -1.13024165132362
H           -0.17295607016130       -3.12251256002409       -2.17233562374905
H            2.11858692393730       -3.93207816896794       -1.77542496900609
C            3.73926282660085       -3.30766840524002        0.21634274178551
C            2.45690551644111       -1.43147518541718        2.14187457660914
N           -2.11679318081978       -0.20640790196413       -0.36079187348858
N            0.62933627257094       -1.25739286080499        0.48542157022856
C           -4.00712512453078        1.37959260054597       -0.02672573278877
C           -5.77369053045789       -0.98620508616334       -0.21817218189848
C           -6.29008465965682       -0.62008014980834        1.02429061724186
C           -6.65562460102849       -1.34997212084736       -1.23254911068511
C           -8.52526578590417       -0.95244115815855        0.21675700556125
C           -8.02128631255595       -1.32634320663777       -1.01751610197291
C           -7.65538473225750       -0.60324367008995        1.23706504896726
H           -5.61331990911219       -0.36383937968430        1.82615393453971
H           -8.04285367021199       -0.32001353355259        2.20447446717541
H           -9.59159933844310       -0.93645610750198        0.38472291715136
H           -8.69460354052197       -1.60121732234818       -1.81601412917799
H           -6.26442019925941       -1.63258795677563       -2.19923431330134
C            3.90719390630927       -4.69084549455646        0.24014298000010
C            4.86440819139936       -2.49468752362605        0.33754187526945
C            6.27361111066364       -4.42668063823216        0.53086352343362
C            6.11989293953225       -3.05058876567491        0.49370853940515
C            5.16336111525605       -5.24454226387474        0.40267873683042
H            3.04146331405935       -5.33126465924846        0.14994200399084
H            5.27695043194615       -6.31833798709102        0.42882138939833
H            7.25478514679058       -4.85965555247077        0.65489048134860
H            6.98308098047194       -2.40768243391591        0.58267954755381
H            4.75139736178582       -1.42294088231495        0.28861728973038
C            2.96622132820903        0.00172561556300        2.28516001213550
C            1.46657955767328       -1.76013003419815        3.26600010116754
H            3.31416432386512       -2.10448510115011        2.24904136383050
C           -3.80043427127559        2.25522545158289       -1.26931463340276
H           -5.08663909553550        1.25066267187267        0.09236885080862
C           -3.47587840063128        2.06935620713426        1.23219124327475
H           -4.34318670879718        3.18734239381158       -1.13699711193661
H           -2.75178074995367        2.49105084406104       -1.41589580239444
H           -4.18363943651330        1.75275698869219       -2.15559390256302
H           -2.52443811787986        2.55191104593826        1.04484601015840
H           -4.17991670999759        2.83631184022922        1.54486598306711
H           -3.35392065374141        1.36084938953836        2.04886959172409
H            3.55781369389521        0.28900263516951        1.42000030189826
H            2.13844340591989        0.69308230944584        2.39498900624493
H            3.59262415673893        0.07296777432550        3.17172545472428
H            0.61674310510811       -1.08464061828771        3.23929639892664
H            1.11186268931133       -2.78573217193820        3.17759725708738
H            1.96475150759397       -1.64764620307887        4.22537635146858
