83
 energy: -129.133862816889 gnorm: 0.000388316807 xtb: 6.5.1 (b24c23e)
Si           0.10122852612397        1.84451798541980       -0.18797580432126
O           -1.36747983287957        1.50035429202201        0.43255983045270
C           -2.00518217160723        1.84575793419143        1.64561834395179
C           -2.09975903187166        0.56582323961498        2.44656321334283
H           -1.37343789124106        2.56187308734334        2.18646263906678
C           -3.25472593547078       -0.19587822013616        2.54945296839062
C           -0.92918471693203        0.09407149521031        3.03273123515381
C           -3.24247176655415       -1.39617349424937        3.24083290922126
H           -4.17796129578432        0.13487859619225        2.09983888196624
C           -0.91504201213316       -1.10789325607373        3.71468100803373
H           -0.02727943887122        0.68303048576478        2.94779789981167
C           -2.07587039236389       -1.85586097805992        3.82423731840911
H           -4.15241967461667       -1.97353304737597        3.31983117309784
H            0.00135585303254       -1.45897802211810        4.16679381575748
H           -2.07032679646672       -2.79245016811158        4.36266582736329
C           -3.34483998794275        2.52503548291942        1.33894003736253
C           -3.10708016961340        3.73164245301934        0.57245662271643
H           -3.84297844163149        2.76832800628544        2.28083764965964
H           -3.98387150960412        1.85435175420207        0.75838002448131
C           -2.84775987131256        4.69076776458250       -0.09320803402364
H           -2.63374658063944        5.54394455986673       -0.66371762024875
Cl           0.35716042863427        3.06922732724026       -1.81870143957202
Cl           0.65120860583791        3.38718053635802        1.22591527302491
O            1.42101454336752        1.02629671129339        0.50128104242515
O           -0.13560163387378        0.50691124955585       -1.39350416076730
C            1.27101165178718       -1.31681526754679        0.14844276204420
C           -0.13676649934713       -1.38262576318819       -0.04485329922233
C           -2.08477930891015       -0.75220643610201       -1.29856541534627
C            3.38164179065872       -0.14457830284960        0.09625737788450
C            4.06931459250959       -1.34346686803499        0.10906625662509
C            1.98506419831748       -2.52186333122543        0.33032920022970
C            3.34377879801786       -2.54671685251784        0.30701904280307
C           -0.89794550382159       -2.38881534789091        0.58809913092681
C           -2.22681913602011       -2.52041348878562        0.33312545995386
C           -2.84657241550870       -1.71109653499474       -0.64675278018128
H            1.42714412160875       -3.44027415030793        0.40357463144360
H            3.88381823275709       -3.47587047809795        0.39329475373151
H           -0.42454610879552       -2.99812275363382        1.33930857558533
H           -2.82116911979301       -3.23966052798726        0.87325372037165
C           -4.28019112124326       -1.91836897078950       -0.89530638122102
C           -2.60191225482279       -0.06535106623947       -2.54038774690995
N            2.02498559858261       -0.15165257988261        0.14475670638561
N           -0.80174826914971       -0.56676199107503       -0.92763354280500
C            4.14178506796586        1.15838681526379        0.14368428070207
C            5.53008089874925       -1.44797111579735       -0.04329772904311
C            6.17407251752354       -0.96198699526362       -1.18017527600508
C            6.28237596639745       -2.10283942171981        0.92832653016966
C            8.28193057490917       -1.75331615292513       -0.34945153672474
C            7.64925584598293       -2.24768398827604        0.77864526842433
C            7.53962298965443       -1.11421351819182       -1.32924957651986
H            5.59509579812468       -0.47772840464608       -1.95286266658575
H            8.02691087359546       -0.73535697347133       -2.21538674373001
H            9.34902608425416       -1.86789052499552       -0.46655739233318
H            8.22263311470131       -2.74783923637632        1.54520978840338
H            5.79105026522384       -2.48102478214902        1.81319433771411
C           -4.77586648634080       -3.20827902319106       -1.07820429979998
C           -5.18020114968199       -0.85388049428451       -0.87443567416524
C           -7.01434255430313       -2.35848324330831       -1.23136175070602
C           -6.53439052070427       -1.07310435652475       -1.04054110304030
C           -6.13015758530782       -3.42436901845750       -1.25107753494081
H           -4.08842555131965       -4.04147656173483       -1.10472848033508
H           -6.49791073362171       -4.42884902475951       -1.40093922471898
H           -8.07245318392130       -2.52864343403229       -1.36162480226500
H           -7.21913349256205       -0.23813149607112       -1.01727688759368
H           -4.81209382129299        0.14758795426401       -0.71306874034494
C           -2.78616482051531        1.45017152496675       -2.44555123863011
C           -1.68503250779207       -0.41253646791401       -3.72060923870184
H           -3.58134995352735       -0.51225746840943       -2.74065214653339
C            4.01312314583118        1.82710917998200        1.51836492732247
H            5.19521974343367        0.89063966633684        0.02082713815397
C            3.77235832479158        2.12509732220453       -0.98321499984550
H            4.70075023347665        2.66723480899028        1.56725060619002
H            3.00852506368033        2.20045783129136        1.68624641397766
H            4.27037817495841        1.12273792496082        2.30732575383280
H            2.85231676976515        2.65446552762875       -0.76811590102878
H            4.56223857959630        2.86367442915748       -1.09370722666378
H            3.65769331937175        1.59904775283958       -1.92871901021554
H           -3.42899514777393        1.78317522073667       -3.25714430791730
H           -3.23996036400827        1.74000462897923       -1.50382623272768
H           -1.83633559241022        1.96400770588178       -2.53079780686760
H           -0.70461615485016        0.03550294038021       -3.58752094694974
H           -1.57527449385525       -1.49142598699284       -3.81992334309718
H           -2.11930029061190       -0.02218260817660       -4.63721833391379
