83
 energy: -129.134782465245 gnorm: 0.000535147568 xtb: 6.5.1 (b24c23e)
Si           0.25431839212143        1.72458695162442       -0.65063842572108
O           -1.28038985600134        1.72175997154759       -0.09036248508104
C           -2.07076065980216        2.72736099595736        0.50032657090484
C           -2.55802365773050        2.24905398490972        1.84379453434341
H           -1.46900117602660        3.63408753036627        0.62238851581202
C           -3.08335860101044        0.96981713119126        1.97032236413358
C           -2.49344383825916        3.06993090850877        2.96086501765482
C           -3.53047623518213        0.51290306077196        3.19635990271278
H           -3.12641745107715        0.33144755848735        1.10055621840031
C           -2.95273530719074        2.61697408324299        4.18558322629535
H           -2.07608380325383        4.06208084951425        2.86931556265878
C           -3.46972596821132        1.33815012122951        4.30671841241660
H           -3.92848622783025       -0.48833095131442        3.28620668948150
H           -2.90144369628114        3.26223798711694        5.05014162764161
H           -3.82259122616822        0.98453392223148        5.26446933847972
C           -3.26716685961977        3.04384026044755       -0.41968475460449
C           -2.80391612937378        3.39500180557857       -1.74484926305805
H           -3.91860932825397        2.16814826697697       -0.48034358919840
H           -3.83078077911522        3.87291493900453        0.01528342015104
C           -2.35626328672560        3.64000940763086       -2.82696513774959
H           -1.96679738373840        3.87275309372150       -3.77232030732212
Cl           0.70836712321563        2.23745008925925       -2.59157597352109
Cl           0.84924217656322        3.63466276490980        0.15596148556047
O            1.41182521039633        1.11580793928186        0.43816592986355
O           -0.00877574882028        0.06904850844446       -1.32295624169065
C            1.17686617387516       -1.22686112072315        0.79812736630818
C           -0.21114876946791       -1.33155595134373        0.51002818523080
C           -2.03392159593761       -1.03112088000311       -1.04641583238271
C            3.33510211830407       -0.16817206683600        0.58134496239335
C            3.96795022581613       -1.33269429660147        0.97718200137104
C            1.82533581466039       -2.34678760130145        1.36774073699319
C            3.17937056123305       -2.41224524262312        1.45148720856719
C           -1.05846989239733       -2.13139765740209        1.30772551393240
C           -2.32975377257264       -2.40424363566872        0.90936741817021
C           -2.82321966325789       -1.90632540121967       -0.32069269800965
H            1.22362038694111       -3.19300774536396        1.65402516060589
H            3.67043998001721       -3.29297438824187        1.83291409410674
H           -0.69143279139893       -2.49069178274281        2.25454584831806
H           -2.98087558822653       -3.01191264644074        1.51866874494819
C           -4.15904580616700       -2.38976718631362       -0.72146904334869
C           -2.43500771963461       -0.28768034058344       -2.29423628456391
N            1.97958586466970       -0.12715437662786        0.52329206894385
N           -0.77649221141631       -0.77768124903614       -0.61284747205863
C            4.15276847895436        1.07699553191200        0.33739986398334
C            5.42782855655083       -1.51803348068869        0.95106916178476
C            6.15022565734275       -1.36528747292333       -0.23189815942537
C            6.09937373489940       -1.92428870720909        2.10143384616203
C            8.17400520638484       -1.98567454211568        0.89847462385611
C            7.46336641402350       -2.14951689371830        2.07555361546682
C            7.51240306754693       -1.59675928735420       -0.25506563284473
H            5.63390022847390       -1.07816163031038       -1.13608600144194
H            8.05995349733390       -1.47643402663026       -1.17806652255943
H            9.23865771140760       -2.16372206651749        0.87873760252900
H            7.97366101445317       -2.45458662116365        2.97728155147876
H            5.54827066530160       -2.04327281992517        3.02313302686714
C           -4.30454254161961       -3.24167895741086       -1.81202167705188
C           -5.27384202188725       -2.09000800470237        0.05532576401925
C           -6.65444855324182       -3.43666556801474       -1.37094813033283
C           -6.51516443681850       -2.60243054665971       -0.27460854945553
C           -5.54535048876703       -3.75943127839087       -2.13495225770877
H           -3.43661885260742       -3.50648888108719       -2.39791205359554
H           -5.64632631525280       -4.41997632297454       -2.98352464029817
H           -7.62324441915664       -3.83924598862595       -1.62573890213647
H           -7.37603775891550       -2.35256211532455        0.32778868124343
H           -5.16750710713703       -1.43781864076803        0.91067928706994
C           -1.80815136060777       -0.95310087457420       -3.52552081024970
C           -3.93552063734450       -0.08980052898024       -2.49352533681239
H           -1.99080032434887        0.70778859181146       -2.20559489883344
C            3.94298859108101        2.10282779435623        1.45847821073139
H            5.19742559080242        0.75827532364299        0.39552961500902
C            3.93359372066293        1.70425413264642       -1.04164620319844
H            4.65213071672778        2.91598330883518        1.32839248594252
H            2.94150131392366        2.51838817463589        1.43349767995475
H            4.11545311385358        1.64300753152679        2.42996647466425
H            3.06289278214093        2.34809141715502       -1.05140478314968
H            4.79714164449527        2.31211127189989       -1.29959950759074
H            3.80890254577422        0.94077771779012       -1.80661396035791
H           -2.18418615814869       -1.96602224772769       -3.65223099375926
H           -2.05825990949954       -0.37572012888137       -4.41106760285640
H           -0.72600841591568       -0.98154275363800       -3.43220183048104
H           -4.08420772023631        0.73520767218256       -3.18677542695501
H           -4.41054259077022       -0.97417978296284       -2.90803025983526
H           -4.43213663749695        0.16053908932472       -1.55984896789065
