83
 energy: -129.131045668244 gnorm: 0.000396801615 xtb: 6.5.1 (b24c23e)
Si          -0.07706691896234        1.81335769916286        0.59561625824664
O            1.41042431039330        1.70316268074342       -0.05225382719178
C            2.17206024709003        2.01203133575206       -1.19523926500640
C            1.73187527686137        1.15539471295807       -2.35822501974232
H            3.19655235339782        1.72458554288140       -0.91014858475577
C            0.42825743224539        1.21764456283756       -2.83476051341553
C            2.62039951827123        0.25895685685779       -2.93694289594982
C            0.01790290097809        0.37646321519755       -3.85371454972274
H           -0.26896947915177        1.91794602962520       -2.40264146852254
C            2.21463704902678       -0.56960319013689       -3.96786814962015
H            3.63923505092971        0.21357995092455       -2.57821220062554
C            0.90787820793492       -0.51965530391001       -4.42146223809848
H           -1.00097689802718        0.42579378102395       -4.20883824404954
H            2.91755952820571       -1.25936298525201       -4.41210225460274
H            0.58597108411355       -1.17349581750559       -5.21898660772051
C            2.18361845958571        3.50676497283330       -1.55481223635605
C            2.66547639713849        4.28304111648906       -0.43279318531050
H            2.84022478304412        3.64389641427366       -2.41866066786407
H            1.17685309689763        3.83799078477054       -1.81219435572656
C            3.06064169469340        4.86661358488987        0.53378500414729
H            3.39118116957324        5.41200292099990        1.36605216936702
Cl          -0.14380264035334        2.62329559523560        2.48218051242333
Cl          -0.80641308938480        3.59933534576765       -0.35848885378571
O           -1.39129399732405        1.10174355971303       -0.21795297936801
O            0.21296069403479        0.20341823093049        1.44218401676969
C           -1.13201331440391       -1.25240365492285       -0.46913658026228
C            0.27614502059170       -1.32146875852545       -0.29892054410309
C            2.23553527432292       -0.85368168102507        1.03140946129654
C           -3.27527670031558       -0.23596654419477       -0.01623209601110
C           -3.92199889252173       -1.41347601673617       -0.33789482143408
C           -1.81515286763584       -2.38746234355637       -0.96211394899475
C           -3.16975753673447       -2.47443799304082       -0.90599004069758
C            1.06916125481858       -2.14047087861477       -1.13062056796906
C            2.38670227081235       -2.33645655532931       -0.85668479175483
C            2.98340901251002       -1.73890442326851        0.27660096678071
H           -1.23343030724510       -3.22423839305923       -1.30999218538365
H           -3.68423533080646       -3.36103252638820       -1.24022358568307
H            0.62520417925689       -2.56763357492699       -2.01362539407247
H            2.99591749298654       -2.95523796841225       -1.49708354712501
C            4.37915068179122       -2.13231997263087        0.55600215854802
C            2.73799036699541       -0.02150340085425        2.18269658353526
N           -1.92419647762359       -0.16086613823208       -0.13213388805205
N            0.92551373163724       -0.68611765348453        0.73226453023173
C           -4.08077686680842        0.98386381196819        0.36023170582964
C           -5.36570862359131       -1.63122914869297       -0.14494613376384
C           -5.94368638899141       -1.53876598715177        1.12033728326301
C           -6.16287838728035       -2.00418707921292       -1.22364097048093
C           -8.07896975682337       -2.15037667233618        0.21235580788868
C           -7.51119115497272       -2.25485298271850       -1.04621294803492
C           -7.29027000266339       -1.79593595260846        1.29494742194726
H           -5.32694189207016       -1.27817886838845        1.96807061094407
H           -7.72588871414902       -1.72287901459681        2.28041923179739
H           -9.13135891030501       -2.34778488139701        0.35046932097153
H           -8.12093990162600       -2.53298136741613       -1.89321598106344
H           -5.72280474622564       -2.07822616757850       -2.20764706581332
C            4.68300251015871       -2.93983819043071        1.64769560385651
C            5.39262989903267       -1.79317059490139       -0.33415939725660
C            6.98890020557637       -2.99951716136387        0.98783215949784
C            6.69084189793558       -2.21516375231895       -0.11364904871849
C            5.98061103150361       -3.36680028640891        1.86323852309204
H            3.89417446115913       -3.24210108093775        2.32069709101441
H            6.20486646530942       -3.99163280054327        2.71522883184064
H            8.00218487022017       -3.33017369816250        1.15945838256783
H            7.47181153208837       -1.93410425895538       -0.80467347753112
H            5.15948425441915       -1.18371270425983       -1.19516751848810
C            2.38198996298097       -0.69730386381022        3.51195903801213
C            4.21889300095384        0.34176647785666        2.12525993649698
H            2.18108856439545        0.91712937667544        2.14076740711137
C           -4.09632331831863        2.01654437780884       -0.77375731522825
H           -5.11016395366364        0.63330061629622        0.47926424992644
C           -3.64959390598897        1.61161782445228        1.68704845168627
H           -4.80620182322642        2.80152851594243       -0.52667809490612
H           -3.12147269886362        2.47130360799622       -0.91235578289707
H           -4.40835963719914        1.54837963816192       -1.70545126735294
H           -2.75464947208453        2.21143972758154        1.57569618416246
H           -4.44184873821498        2.26221087094046        2.04875987961291
H           -3.46221462873631        0.84623947427733        2.43743426896832
H            2.90283770849390       -1.64598752188532        3.61752168197497
H            2.67087412866347       -0.04919382882566        4.33475417169145
H            1.31021941811694       -0.86821948334255        3.57274537861838
H            4.40112571707301        1.15668946707440        2.82200067116552
H            4.85760183345258       -0.49095020134886        2.40361645002866
H            4.49649597062616        0.68156064270111        1.13085468520502
