89
 energy: -135.443127605138 gnorm: 0.000314129140 xtb: 6.5.1 (b24c23e)
Si          -0.16323061286665        1.48680430710871        0.14068860543920
O           -1.59416978143948        1.07682370052946        0.81794300284425
C           -2.29822432581479        1.68948409575927        1.87489713331090
C           -2.69797763422642        3.11503608649190        1.58500615754506
H           -1.66758707357281        1.66788293508462        2.77242674022658
C           -3.09737975296761        3.49860271856359        0.31387407901290
C           -2.70545728674551        4.05112603370610        2.61083313488519
C           -3.47363459727526        4.80634237061086        0.06386953636577
H           -3.09168589938777        2.77824229955665       -0.48854907161188
C           -3.09064650744980        5.35510844648018        2.36263005909107
H           -2.38829154141914        3.75896010474845        3.60149925217539
C           -3.47194440965933        5.73704805211931        1.08718705308305
H           -3.76409730880956        5.09622977777229       -0.93501143885023
H           -3.08209224835886        6.07830448111545        3.16487234681622
H           -3.76063451720685        6.75933461365756        0.89152297544448
C           -3.57338634048127        0.86339474667143        2.12805116293899
C           -3.27117041571060       -0.44674890064742        2.65753567846280
H           -4.20294899000521        1.40504108208501        2.83928111586478
H           -4.11391416146075        0.77330295989779        1.18239438107557
C           -2.99146409333105       -1.51922571115532        3.10849558932441
H           -2.76809820814953       -2.45659185638461        3.52109023249295
Cl          -0.13664172218229        2.66970532876859       -1.54683630283066
Cl           0.29534138951413        3.12460452186718        1.49614392317571
O            1.27368992294578        0.84512799279211        0.77958450142393
O           -0.31386591660366        0.10753881819964       -1.00660692552744
C            1.43571281862616       -1.47652612148896        0.44044050563173
C            0.04179112206919       -1.74408164238183        0.33023266467425
C           -1.99107574764495       -1.53610455416887       -0.96074907689071
C            3.37609749342994       -0.02692793479762        0.20728586922297
C            4.17955120093910       -1.14715092438260        0.06973358155528
C            2.30573340811068       -2.57829327876741        0.58365744310193
C            3.63746339102113       -2.42471959073840        0.37804101257106
C           -0.52105544555442       -2.84044468603835        1.01538713539962
C           -1.80892341372837       -3.20058393604131        0.78101800586983
C           -2.56150579632126       -2.57451326888850       -0.24326628871101
H            1.88721365688168       -3.55757057769291        0.74194565323237
H            4.30214298085375       -3.27363127348046        0.39612212166309
H            0.06046525930577       -3.33252857200457        1.77712301136117
H           -2.27489687257397       -3.99249527780973        1.34591981344030
C           -3.93992892274452       -3.09279186951148       -0.35822508803036
C           -2.53977843635942       -0.97902858229971       -2.27429880636526
N            2.03381187898304       -0.22536399462760        0.38143979539579
N           -0.77858805755240       -1.07419804668432       -0.54526350946027
C            3.90874711393277        1.39868697422010        0.33412706397278
C            5.55951469216449       -1.21426136048286       -0.44964647925865
C            5.80459577748842       -0.91496902215168       -1.78774867045150
C            6.59183154610372       -1.73321370790100        0.32560656745385
C            8.09520341499897       -1.58278863407744       -1.53767389145847
C            7.85439421295642       -1.90346120262738       -0.21238547858370
C            7.06553975875526       -1.09458825664185       -2.32497630681303
H            4.99622181831977       -0.54914209419664       -2.40451811794986
H            7.24435348722644       -0.85733692614621       -3.36335172391103
H            9.08021070673058       -1.71962479344350       -1.95785335294226
H            8.65198871318629       -2.29192470254932        0.40363075951998
H            6.40500868443003       -1.98294274357844        1.36052704140033
C           -4.16418463116491       -4.42822661531651       -0.67795106571273
C           -5.02235217138787       -2.29514000671561        0.00039910984544
C           -6.52098660284806       -4.13706041892641       -0.34111244540214
C           -6.30365200594451       -2.81404279677552        0.00661205086746
C           -5.44784923311636       -4.94293251312807       -0.68145821273973
H           -3.32665488150856       -5.05932371576245       -0.94038698635074
H           -5.61045060781947       -5.97762339861851       -0.94523873269646
H           -7.52244092543757       -4.54041314487381       -0.33925321055451
H           -7.13524486780193       -2.18510358545397        0.28813145817183
H           -4.84870055080224       -1.27031704988826        0.28831399910574
C            3.70743036444341        1.83305570260450        1.80041565908929
C            5.41355565294518        1.52895498556721        0.07158525347486
C            3.19086911183400        2.35842420621292       -0.63264267987656
H            4.10652089244807        2.83540032974585        1.92864438903795
H            2.66154799404357        1.85829558633261        2.08171224220202
H            4.24118082753420        1.15766311847880        2.46742589868992
H            5.70380650654490        2.55101485694966        0.30707969031948
H            5.99784401580084        0.86708894034669        0.70365454353459
H            5.66419423212759        1.34281431934945       -0.96745303549117
H            3.88379154685453        3.11908845214712       -0.98136545154147
H            2.80645750791740        1.83217706633340       -1.50334956437957
H            2.36964278659588        2.86817884916883       -0.14475602719702
C           -3.10474909844704        0.43384930092901       -2.10115537848117
C           -1.40221327526234       -0.96765233124481       -3.31425269688433
C           -3.64314557895248       -1.86131187260915       -2.87440940023249
H           -4.57798374092050       -1.77792425786221       -2.33180211376680
H           -3.82604271644990       -1.53250942549655       -3.89532838812843
H           -3.34484429222369       -2.90581293948259       -2.90748011804139
H           -2.31821124779064        1.13445616329605       -1.84938019117504
H           -3.56349052042076        0.75760037044167       -3.03256163239928
H           -3.86266781930637        0.44431916868734       -1.32109041560233
H           -0.61648619678210       -0.26933088442624       -3.05002629636681
H           -0.97534469373217       -1.96433940626973       -3.41689685857357
H           -1.80376419239468       -0.66473845773549       -4.27761956959257
