89
 energy: -135.440472702205 gnorm: 0.000229469512 xtb: 6.5.1 (b24c23e)
Si           0.09980472631406        0.83885284762348        0.79184269982734
O           -0.42919059018346        2.36445649582315        1.01127806624002
C           -0.23704849798998        3.59302138081182        0.35008038153317
C           -1.51640010468774        3.99612752459918       -0.33795467205418
H            0.56188647165794        3.49182795575153       -0.39229991171866
C           -2.70784076422226        4.03683959587372        0.37503903249993
C           -1.52253854223193        4.31546334682858       -1.68864380218777
C           -3.88671090925258        4.39240313925341       -0.25478020995735
H           -2.70783394269349        3.77222981800487        1.42153601083441
C           -2.70171492214381        4.67624148119663       -2.31722645609296
H           -0.59984852826999        4.27806346798277       -2.25004337187199
C           -3.88610585313373        4.71523881530991       -1.60158787066517
H           -4.80935278359492        4.42007496575268        0.30708493002366
H           -2.69626414381877        4.92351833605461       -3.36889273781430
H           -4.80681455822594        4.99471075473134       -2.09335686672415
C            0.18662989906025        4.64434012714746        1.39324553932503
C            1.46780006585460        4.29429413433945        1.96667135531084
H            0.24704128843436        5.62228803161863        0.90827780880910
H           -0.56510143549130        4.68139307220101        2.18499710155156
C            2.52132996874661        3.95160152114874        2.41809701907535
H            3.44577588290551        3.67198515726944        2.82614246877935
Cl          -0.84454175508789        0.35291353346118        2.61221740987714
Cl           1.72888337600467        1.42452846924378       -0.56020325757942
O           -0.91066466366155        0.25027110468100       -0.44049944825665
O            0.94728723188029       -0.64817993114846        1.14505298270328
C           -0.39452096613394       -2.00548226660964       -0.84341356669787
C            1.02895476294575       -1.82415177883518       -0.83672442067967
C            3.07039874462656       -1.22448303690476        0.32487330705654
C           -2.69527365619758       -1.25815514460475       -0.59431642265858
C           -3.12328718795305       -2.57292916366102       -0.68589401761258
C           -0.87311826502414       -3.27879587665178       -1.19708776863146
C           -2.19149487317457       -3.57891368457528       -1.06010999448290
C            1.79694027514240       -2.36162386206218       -1.88150042701933
C            3.14626159196314       -2.17669800261060       -1.89478101925584
C            3.80819220192749       -1.58341663991519       -0.79050228217646
H           -0.15737074110656       -4.04028428818770       -1.46033704410295
H           -2.55020701295819       -4.58426745957732       -1.21054558861108
H            1.29033810875482       -2.81436473786109       -2.71831311279591
H            3.73500378584180       -2.47053335722119       -2.74933997497579
C            5.23560219887761       -1.28974750763727       -1.01382276215377
C            3.64645537161760       -0.96085535079002        1.71446145991357
N           -1.34640365926362       -1.03198682620907       -0.58743635432356
N            1.71420097661424       -1.26458270462319        0.21279575533619
C           -3.63041454103450       -0.05030568741006       -0.65965623697835
C           -4.45662054652991       -3.09053469530805       -0.33149736163486
C           -4.92198438796629       -2.93706461604144        0.97341193745121
C           -5.19195816561977       -3.86468256421897       -1.22374137921694
C           -6.84990771390272       -4.27084270943557        0.46169264178487
C           -6.38661439667176       -4.44066692757806       -0.83199794987603
C           -6.11155171114227       -3.52239602121031        1.36405546279699
H           -4.33659278244349       -2.36613001696516        1.67912487576481
H           -6.46171060281442       -3.39796354812553        2.37800915606632
H           -7.78002118537372       -4.72553822069335        0.76788567637268
H           -6.95574142901327       -5.02797113085223       -1.53755977964869
H           -4.83350872735334       -3.99683298261268       -2.23483702975008
C            6.14349720889251       -2.29425692652105       -1.33037330641885
C            5.65043737141497        0.03978750317863       -1.05117711138796
C            7.86599618110795       -0.65638751331732       -1.65451595385138
C            6.95936262841904        0.35146690219890       -1.36788926089484
C            7.45472892478215       -1.97837286264878       -1.63748509519293
H            5.82292091532806       -3.32653348453943       -1.31741726712401
H            8.15656272577264       -2.76612340790519       -1.86908357048202
H            8.88891828499609       -0.41133065101998       -1.89863849514343
H            7.27269679307620        1.38461705021486       -1.39596052383918
H            4.93152342966394        0.81939930922679       -0.84767774293617
C           -3.20459746360334        0.83906137306562       -1.84616266253943
C           -5.08729563269767       -0.43612125519521       -0.95354270305094
C           -3.62244504986991        0.75142351862730        0.64666985106036
H           -3.89244944222208        1.67711203817550       -1.92421656587689
H           -2.20917779888979        1.24893652564743       -1.72732676430510
H           -3.24461369677128        0.26967229631684       -2.77348712208287
H           -5.63344052436544        0.47196091655287       -1.20044569699289
H           -5.16217564112110       -1.11119740402228       -1.80169140932067
H           -5.57295107088605       -0.88750090812964       -0.09599716025237
H           -4.43238518422321        1.47603414444312        0.62484190522584
H           -3.76369879041118        0.09625987317990        1.50231696853463
H           -2.69503536246888        1.29157331514930        0.77974831644706
C            3.51384962056410        0.50381457612803        2.15117341005433
C            2.91045890941192       -1.87801136238296        2.71264158378947
C            5.12997637017284       -1.34417975823796        1.80860175277562
H            5.76943473761176       -0.62753481122937        1.30537456226497
H            5.41452131476184       -1.36175547329721        2.85870238314637
H            5.31254049946344       -2.33294157544893        1.39591743865101
H            2.48402257919775        0.77030384020143        2.36488858602355
H            4.09602221459410        0.65785508260608        3.05708098789769
H            3.88615509130751        1.16839576616418        1.37618052808109
H            1.85701158299691       -1.63490938856031        2.79720772649947
H            3.01073237045855       -2.91962076492028        2.41099150834291
H            3.35677752077471       -1.76108282028013        3.69686492218217
