89
 energy: -135.445850039206 gnorm: 0.000444820482 xtb: 6.5.1 (b24c23e)
Si          -0.04066504740072        1.58370047734667        0.08975989465548
O           -1.39320606913385        0.92697178104163        0.70812994847979
C           -2.23036916432992        0.89832697776394        1.83396313834205
C           -3.40245368815016        1.83817773009182        1.68207223423790
H           -2.61070958335624       -0.13756882733767        1.85548287711803
C           -3.23728826210249        3.12033153978055        1.17773502766493
C           -4.67130878314015        1.41345173508391        2.05910021994455
C           -4.32963617981285        3.95860848728666        1.03798512662242
H           -2.25580183253487        3.46309898753602        0.89306982997302
C           -5.76052158585132        2.25555366175514        1.92578733240310
H           -4.80567610660103        0.41768311254742        2.46064761674239
C           -5.59216932036325        3.52921988136419        1.40910736378433
H           -4.19013784434329        4.95172719691917        0.63870430414634
H           -6.74202456416826        1.91472578616664        2.22243451410775
H           -6.44352776084516        4.18458911076973        1.29835350492379
C           -1.50108752577591        1.15591381762806        3.16547335600224
C           -0.40066603343430        0.23318910272278        3.33210064871129
H           -2.22168910957184        1.03074355495461        3.97798521504623
H           -1.11820150273489        2.17786213280245        3.17933265946149
C            0.50584900161689       -0.54468202095845        3.40751856297118
H            1.31876866698610       -1.19915751091836        3.51425179657997
Cl          -0.22264988014045        2.92017226426155       -1.47678845139415
Cl           0.39296838468950        3.13489651397500        1.50623688590299
O            1.46171071832362        0.99460802834739        0.55882773708224
O           -0.09612873167596        0.26278640717702       -1.21770015411931
C            1.45860058335608       -1.37594299287306        0.38142736315835
C            0.07646974824123       -1.60469178283628        0.12371299333106
C           -1.88331293268062       -1.22566708097434       -1.23690546673091
C            3.48364451566693       -0.05644629302963        0.07299420126310
C            4.24367255051103       -1.08611073280517        0.56853046981964
C            2.25748073625889       -2.43300201195066        0.85603648648284
C            3.60058700670269       -2.27431513513350        1.01263730850128
C           -0.62597550336476       -2.60409557307102        0.82691604569240
C           -1.94419678367555       -2.81979918282722        0.57292325498963
C           -2.59639828344133       -2.14518144922670       -0.48259541754110
H            1.80032362862784       -3.38530743056288        1.06699787935708
H            4.20897040545571       -3.06935292134929        1.41465198019179
H           -0.14006058738204       -3.12222290884164        1.63507295790169
H           -2.51367663866090       -3.51214653478548        1.17391672628126
C           -4.04593294579566       -2.41837872506347       -0.57053312348899
C           -2.37156097995466       -0.63686565159214       -2.55811793942575
N            2.10474989965208       -0.17045961701818        0.15804017667980
N           -0.62927976690062       -0.90057923388476       -0.81907905386808
C            4.01199413684571        1.17428532936773       -0.65473197583922
C            5.71017450389088       -1.09231181963622        0.76134895406669
C            6.51387517318911       -1.99045920012543        0.06864081732942
C            6.27955301596283       -0.29382256320554        1.74856646546703
C            8.43485594847468       -1.24530152205948        1.29685131962797
C            7.63522098093717       -0.36850985479830        2.01105447791311
C            7.87106241570126       -2.05717204600196        0.32737216695640
H            6.07237036205105       -2.62709241251070       -0.68497402042574
H            8.48937520108650       -2.74885314730754       -0.22562774633047
H            9.49373059264883       -1.30011623876475        1.50047689580478
H            8.06836169814866        0.25758611068261        2.77700786471643
H            5.65161884844839        0.38136982904798        2.31111965197735
C           -4.51462426513013       -3.70223625986653       -0.82992125576161
C           -4.95656802889818       -1.41926745617673       -0.23651731199309
C           -6.77279594551684       -2.96625592017883       -0.49071569757523
C           -6.31140997121088       -1.69275934902066       -0.20095526783532
C           -5.87117853401098       -3.97014082324424       -0.80239242222358
H           -3.81103238072308       -4.48660535976357       -1.07005290664409
H           -6.22550971338932       -4.96699313278219       -1.01952205095346
H           -7.83122221727387       -3.17776756169056       -0.46625834414610
H           -7.00677731386759       -0.90812863082263        0.05793668198754
H           -4.59725377787098       -0.43012407820535        0.00547121039981
C            5.44667008874503        0.98035841449814       -1.16652892219225
C            3.14809652246938        1.39270384873207       -1.90859173168187
C            3.99516953157331        2.41913355044575        0.24275315172208
H            5.66937126534983        1.77864332258566       -1.87126127176545
H            6.17900755760737        1.03304102213706       -0.36867308884892
H            5.55762316695972        0.03219055348759       -1.68646074224201
H            3.50247009981018        2.26941331939455       -2.44425164180534
H            3.22543350100006        0.53056149622478       -2.56946819837992
H            2.10328689826263        1.55316804718212       -1.68098829841461
H            4.39197891531638        3.26722104824062       -0.30969345422898
H            2.99223884083479        2.66399891196024        0.57188872255935
H            4.61658447274031        2.25886565851223        1.12079701845421
C           -2.94285000628564        0.77383946535850       -2.37593193159570
C           -1.20880518075829       -0.59932960080908       -3.56765003977350
C           -3.45262132016050       -1.52304738928706       -3.19738062441938
H           -4.41206474646194       -1.42325474610047       -2.70301258540898
H           -3.58533818199913       -1.21483998751911       -4.23193108611807
H           -3.15905302353658       -2.57025512744569       -3.19328625195313
H           -2.17961495804995        1.46325072252941       -2.03747443489706
H           -3.32540369241735        1.13097053555827       -3.32892635293454
H           -3.75662059512584        0.77458537878407       -1.65588279085680
H           -0.44229558213073        0.10996940634169       -3.27807793090964
H           -0.76103753653342       -1.58713454599480       -3.66805841821909
H           -1.59162361553161       -0.29544186801989       -4.53832163459835
