89
 energy: -135.423958968924 gnorm: 0.000695320112 xtb: 6.5.1 (b24c23e)
Si          -0.15276671346683        1.03628778050852        0.62861041391295
O           -1.12871925423356        2.22729879304459        0.06074157467437
C           -2.35673483423589        2.86411238800989        0.27656573538748
C           -2.23329198828857        4.30284579998364       -0.17635096352123
H           -3.10473975485132        2.34805312025746       -0.34386483134284
C           -1.09007358363320        5.02739556999363        0.13198176018828
C           -3.26689879866942        4.92281365224498       -0.86408048234719
C           -0.97999913236147        6.35251995127638       -0.24795682020581
H           -0.28572998379645        4.53913159927583        0.66097779163299
C           -3.15915845709431        6.25091864202187       -1.23781258698026
H           -4.15915114349526        4.36310831379823       -1.10891603269425
C           -2.01537223141791        6.96796558315378       -0.93097359805859
H           -0.08517773565343        6.90756240674380       -0.00728210610317
H           -3.96853126160560        6.72611220167715       -1.77316886172933
H           -1.93093082829581        8.00390034881555       -1.22540415083245
C           -2.86248241061988        2.88434877057670        1.73586250024962
C           -3.17001631022584        1.57400220855891        2.26149682892513
H           -3.76684620024084        3.50027751291482        1.75555446960752
H           -2.10448393201389        3.35120168661335        2.36808015445037
C           -3.43088985004823        0.48909234658664        2.69476535959800
H           -3.63995175165129       -0.46113928152749        3.08609253794967
Cl           1.18569622902318        1.49555136074262       -0.92715987440603
Cl          -0.15553527926013        1.63081703667595        2.63340391311376
O            1.07197396442832       -0.13164497671833        1.32354272919759
O           -1.18399947345823       -0.18476929968449        0.08348075993705
C            1.37469928772553       -1.86068286266355       -0.14341964543067
C            0.01095735997978       -2.30013543721794        0.01738913790760
C           -2.34167252442642       -2.11512490299894       -0.49299868018929
C            3.24232298775584       -0.50733747772466        0.54335810173289
C            4.02154779077568       -1.09771794692537       -0.44706571481206
C            2.22214017720600       -2.61481466682688       -0.96552231599552
C            3.50120269445471       -2.18925558193328       -1.17484724611294
C           -0.17666779762903       -3.67572729760450        0.21041598113108
C           -1.42953177130951       -4.21433677047391        0.26535699429559
C           -2.53784727173617       -3.43558529812633       -0.16563423768326
H            1.81346354969786       -3.45101713235757       -1.50900580639339
H            4.12954991320761       -2.66935945418193       -1.90833938172503
H            0.69266946751204       -4.28500689770611        0.40030329263803
H           -1.58766633285537       -5.23994099247076        0.55507268014457
C           -3.82563300268710       -4.15727466601684       -0.18301440302384
C           -3.28382921467474       -1.28459633350189       -1.36197928184900
N            1.92614042537956       -0.83863562794154        0.57121552919152
N           -1.13115320381217       -1.53729513225080       -0.12892201194728
C            3.79980467446753        0.33171648762247        1.69041507291204
C            5.32729039119586       -0.60340778259182       -0.91803024805288
C            5.40577345597981        0.68516857750895       -1.44301143173689
C            6.43957880137497       -1.43544206144878       -0.98861210737307
C            7.70025996454120        0.31320388212590       -2.04055650990642
C            7.62260763087162       -0.97429997572093       -1.53715071064407
C            6.58779882071756        1.13836838920066       -1.99791845564208
H            4.52716167390387        1.31264765948552       -1.42643916179520
H            6.64009429723802        2.13766053053419       -2.40383545865097
H            8.62336965684438        0.67021426998905       -2.47220574779650
H            8.48523701417474       -1.62322755529421       -1.57566704095929
H            6.38093961922000       -2.44000440513254       -0.59384620041516
C           -3.98037538569418       -5.31948125029651       -0.93247304183851
C           -4.85406360834193       -3.76063794849075        0.66745716370713
C           -6.18422385440671       -5.62851749962569       -0.03674214512066
C           -6.02714423816342       -4.48948626249246        0.73519078680427
C           -5.15665636737236       -6.04330734058621       -0.86740515970678
H           -3.17922209404017       -5.64254811075802       -1.58149417626920
H           -5.27093315632256       -6.93660811577227       -1.46355817266625
H           -7.10159705982410       -6.19541063282248        0.01501833286069
H           -6.81940597782975       -4.17065246418507        1.39642797876545
H           -4.72267091741182       -2.88339961389191        1.28281335040152
C            5.33176841881395        0.25939746574704        1.76413092717803
C            3.40023071084114        1.80938638221869        1.59882762105849
C            3.28677531173892       -0.26817900418533        3.01492204034939
H            5.64766827041685        0.66108332951782        2.72454862708975
H            5.68719487671575       -0.76579079734373        1.69724962659327
H            5.80602426334678        0.85039603994140        0.98884090903538
H            3.99321385816513        2.38338743122464        2.30678985606442
H            3.57711290247614        2.19504869248010        0.59905905504604
H            2.35527973532708        1.95064640102046        1.84650488420894
H            3.73686603587595        0.27065798865848        3.84437550596335
H            2.21093447199889       -0.18110558072619        3.11295994548847
H            3.56881746203249       -1.31750411743391        3.09064821094409
C           -4.19127774320046       -0.38033586955876       -0.52373565523680
C           -2.45449471905592       -0.42899751477574       -2.33909848067527
C           -4.16342343631150       -2.19095744521843       -2.23801837404731
H           -4.93593965747660       -2.69232791152268       -1.66626702001766
H           -4.65764603537670       -1.57788970003899       -2.98824990233447
H           -3.56450920736919       -2.93862934084096       -2.75245350524687
H           -3.60314395497242        0.21625465861679        0.16544963130712
H           -4.75333649325744        0.28107001764689       -1.17913114122445
H           -4.90018110481140       -0.97202942181478        0.04952063152036
H           -1.94747390418088        0.38984435141623       -1.84261571642265
H           -1.71357433547492       -1.04202314387984       -2.84976982241953
H           -3.11524588678091       -0.00076972513346       -3.08887298356674
