89
 energy: -135.443189049922 gnorm: 0.000631097288 xtb: 6.5.1 (b24c23e)
Si          -0.43259790380096        0.51576258390276        1.41764405369826
O           -0.34047388549162        2.05641324676666        0.91567543284431
C           -0.57301957680278        2.73174190297399       -0.29358073031717
C           -1.31364987903249        4.01897596165658       -0.02165994652584
H           -1.16509881615516        2.10444785683956       -0.96522577998846
C           -1.24052000918936        4.63215692652725        1.22053987676828
C           -2.05833930725780        4.61095406924152       -1.03412697439374
C           -1.90646777080474        5.82407941911612        1.44667584857103
H           -0.67414842897964        4.15876472543934        2.00744869116912
C           -2.71702244078205        5.80566227457451       -0.80804951335470
H           -2.12307766878250        4.13085658152480       -2.00118473322072
C           -2.64156693422989        6.41495956706105        0.43352276535270
H           -1.84984449613372        6.29251509981444        2.41798924279340
H           -3.29370384054882        6.26037410532740       -1.60054166540613
H           -3.15893555722998        7.34646749624501        0.61037900223424
C            0.77524747813180        3.04055754131516       -0.98062208088194
C            1.35271909270598        1.84573720647277       -1.55424392220458
H            0.60804091727862        3.77729082666046       -1.77103226749865
H            1.45037268029209        3.46740786501810       -0.23539157140153
C            1.78704461771629        0.84026116540496       -2.03750470942454
H            2.18167567919076       -0.03484111273947       -2.46131455242084
Cl          -2.12014184819736       -0.52421319109516        2.12611041827220
Cl           0.03686236222793        1.18987045473642        3.38630187912133
O           -0.75996180328279       -0.06356580024128       -0.26694524683983
O            0.98900524657095       -0.40594743838027        1.53260787425103
C           -0.21548513129645       -2.31028777997630       -0.22785254131887
C            1.18282129709656       -2.02533390988864       -0.15901216262411
C            3.09496132198385       -0.70611536889164        0.54886387231908
C           -2.46726873002879       -1.59982247054944       -0.73942089335549
C           -2.92452585008667       -2.88983662426310       -0.53084822133295
C           -0.65852202852814       -3.64434261409255       -0.19651220603463
C           -1.98993271237163       -3.91862843264038       -0.25676360776061
C            2.05376341067979       -2.86290055658294       -0.88201184500596
C            3.35596282525295       -2.51349168824761       -1.04220477162327
C            3.87886090343332       -1.36208967664537       -0.39049511263124
H            0.06025342815205       -4.42453726119885       -0.00658744487164
H           -2.35613926315226       -4.92122822233651       -0.10318017098354
H            1.64024784722769       -3.71191030958168       -1.40107425856003
H            4.00745860532223       -3.08096834320685       -1.68755285338354
C            5.19880731406087       -0.94112202220305       -0.89125632314192
C            3.66767853457877        0.20280681775155        1.63699281919562
N           -1.16062807260735       -1.34006733690625       -0.44841521015640
N            1.76349651320743       -1.00917427917927        0.58074700639810
C           -3.25452325363087       -0.50742750186867       -1.46019100795374
C           -4.33979189700330       -3.28735130374329       -0.42814281723349
C           -5.12320157785388       -2.71559539040448        0.57245483857299
C           -4.86826568817403       -4.31336500570232       -1.20393872780629
C           -6.95309260567447       -4.14700557204940       -0.02911896527730
C           -6.17251797964728       -4.73202835393460       -1.01185170850614
C           -6.42301749660480       -3.14401602076297        0.76664965178419
H           -4.69247269982276       -1.95202859581774        1.20292504310371
H           -7.02325626541155       -2.69761285621101        1.54547123296319
H           -7.96964884359010       -4.47816015519823        0.12223614277192
H           -6.57969616075995       -5.52045023638764       -1.62779615711419
H           -4.25959275053560       -4.77049304670678       -1.97150454064393
C            6.27930200652563       -1.81845009875629       -0.90184407242856
C            5.33178180121575        0.30006761158766       -1.51289692353407
C            7.60485991153837       -0.20930908832690       -2.08900930779724
C            6.52733310000001        0.66142692078425       -2.10469848344487
C            7.47682979774020       -1.44935547298079       -1.48639411455422
H            6.18445933154950       -2.78553930542597       -0.42867219471489
H            8.31237951397136       -2.13366706875526       -1.47514550538456
H            8.53868603459617        0.07546658223099       -2.54992004192020
H            6.61675137188300        1.62498338104739       -2.58457978440098
H            4.48582185945446        0.97241919889503       -1.53750162716474
C           -4.51187469856123       -1.05405383502052       -2.15163770581884
C           -3.69939552626045        0.63302163776348       -0.53829057942873
C           -2.35953623476082        0.02148953389411       -2.60070512477232
H           -4.88080818731870       -0.29622439920958       -2.83992875578766
H           -4.29317915821713       -1.95103613776267       -2.72515924049977
H           -5.30464331986459       -1.27141739158174       -1.44500774197678
H           -4.26532710393590        1.36288212990333       -1.11340650301556
H           -4.33401958253753        0.24736216726245        0.25438991636350
H           -2.86012412140850        1.13868870054648       -0.07860569155137
H           -2.88077258876229        0.81799748946462       -3.12650042219752
H           -1.41248971716054        0.41404704733940       -2.24654716484460
H           -2.15323708017153       -0.77910787818379       -3.30991599921270
C            3.16501079626150        1.64326440768229        1.49049414231632
C            3.28891292451632       -0.37802562552694        3.01505122733740
C            5.20267181445179        0.25370276263063        1.63301149485201
H            5.59642317491131        0.81594820907062        0.79390526281909
H            5.52648973181780        0.75613637019690        2.54191151823297
H            5.63729289782166       -0.74213588107848        1.63040073641337
H            2.09475128928699        1.71492123580453        1.63039382612351
H            3.64043410657058        2.26438180982061        2.24533549602576
H            3.42452542881895        2.02840376536443        0.50630626528855
H            2.23157701430387       -0.29191308672836        3.23070693268934
H            3.58292344129891       -1.42482953359903        3.07393711254844
H            3.82075006879969        0.17135862489519        3.78696260246328
