89
 energy: -135.358398789064 gnorm: 0.000546474566 xtb: 6.5.1 (b24c23e)
Si          -0.44828027141163        1.35665751621557        0.75672142731411
O            1.08550272353409        1.34288017301658       -0.11708373119394
C            1.84512671841032        2.32849764060328       -0.44568952675225
C            2.94167179440079        2.16108424013688       -1.31271860405168
H            1.62111164848249        3.31194579525794       -0.04578894028606
C            3.16287876382195        0.93826451062479       -1.98771001850437
C            3.84559404998627        3.22204445613410       -1.54295154865162
C            4.23584623216752        0.78870052284155       -2.83382223302557
H            2.45712626669692        0.13520779773575       -1.83743339278629
C            4.91871405449576        3.05305191806436       -2.38472376056282
H            3.67942085104965        4.16310161193831       -1.04087934957788
C            5.12584354798473        1.83829423466975       -3.03249330596512
H            4.39188191925583       -0.15085446595562       -3.34491668179979
H            5.60764315970908        3.86892314802860       -2.54927880549391
H            5.96997752126193        1.71435844858162       -3.69376697670848
C            1.31344643996252        4.44809770857151        2.51445001060284
C            0.71162647470697        3.29893285764718        2.49663756326474
H            2.38957874787083        4.52716399899578        2.50105786031879
H            0.75951430709734        5.37116657446794        2.56227051122660
C            0.11881648400537        2.15424489215206        2.41375829541204
H           -0.14215373469299        1.62729915638336        3.32074515452342
Cl          -2.43450021517452        0.85955723436433        1.69337279288943
Cl          -1.08040137197990        3.21374697986331       -0.14734217130141
O           -1.02390368232441        0.47078870670312       -0.78570709183671
O            0.10986321847549       -0.33114774107859        1.44370821420878
C           -1.34576872993259       -1.71659512726038       -0.33925770673874
C            0.11497740529395       -1.84402744893535       -0.26025807781206
C            2.11509087270666       -1.44304886054452        0.97850849964997
C           -3.21007564853227       -0.35504626399485       -0.91373309087436
C           -4.05140561167340       -1.36539512113288       -0.42998035486006
C           -2.15774273222107       -2.80446099504671       -0.08740813273391
C           -3.51980345520418       -2.59701920448759       -0.04468477655935
C            0.78445598630630       -2.67649933554357       -1.13573583904576
C            2.15695953500945       -2.74575409229411       -1.06399763671626
C            2.83445587937444       -2.12629177944324        0.00108247918597
H           -1.71537191848589       -3.75455425053954        0.16564240632654
H           -4.18581294448101       -3.37499977904490        0.29365065698688
H            0.22882347939796       -3.19784627698424       -1.89881680006471
H            2.72421101060110       -3.28239909048746       -1.80714651203300
C            4.30655005720700       -2.22635631605926       -0.07593077853983
C            2.65380765452907       -1.08885028902249        2.36109429816712
N           -1.87997457452504       -0.53290872540395       -0.70940148966194
N            0.79333320661279       -1.19700898848494        0.72336763053511
C           -3.70501493266238        0.77899953964642       -1.80410164378150
C           -5.49265417029747       -1.18411533263479       -0.16385589863994
C           -5.86320039898233       -0.26392605774632        0.81352888390383
C           -6.45808484530146       -2.00497922217574       -0.73871882227731
C           -8.15812497549434       -0.92928989610301        0.56753416076134
C           -7.78723055711361       -1.86712288255755       -0.38245547371783
C           -7.19422593871935       -0.13821744486731        1.17038158362015
H           -5.09659700936955        0.31702571834907        1.30390758322535
H           -7.47724853775136        0.57790597063436        1.92701017880351
H           -9.19647370443185       -0.82477275202269        0.84493651489188
H           -8.53453269341436       -2.49637099151709       -0.84307787099802
H           -6.16717479347220       -2.73311756255827       -1.48266070919204
C            4.92420075154256       -3.46875496218633       -0.18436147838550
C            5.08168882402086       -1.07499032216601       -0.18588228589164
C            7.05611864646544       -2.40753358635917       -0.47408797582554
C            6.44623673680860       -1.16706870406108       -0.38654488526542
C            6.29184829737528       -3.55752093909968       -0.36952033355231
H            4.33043339608561       -4.36825536013286       -0.10369248639028
H            6.76136275994396       -4.52749319135350       -0.43952628032843
H            8.12228787232520       -2.47799905533854       -0.62798041643364
H            7.03189580904358       -0.26474347052904       -0.47889218153384
H            4.60733367725015       -0.10740718214887       -0.13575147325061
C           -4.84062519372054        0.23073910324455       -2.69020848543204
C           -4.23673414841371        1.98220831044948       -1.01736600959189
C           -2.60460476298711        1.26808196064498       -2.75994128109352
H           -5.07820155081791        0.96915838927331       -3.45148212068455
H           -4.54035767650820       -0.68898911399595       -3.18952589090483
H           -5.74468020263899        0.04373455063725       -2.12213370695072
H           -4.45234462739867        2.78938273681780       -1.71254619731860
H           -5.14657480532825        1.72811540943830       -0.48296013077983
H           -3.49730645586387        2.33447757929753       -0.30761312481775
H           -3.06508291284221        1.85656713463746       -3.54992880549638
H           -1.88849409658791        1.90385838768284       -2.25197885773107
H           -2.07792030202848        0.43431175021385       -3.22205379253223
C            2.95464629584864        0.40848061044169        2.48024322637947
C            1.61562466930742       -1.50596885665384        3.42164921541486
C            3.93013054923249       -1.87139678989979        2.70663544070799
H            4.80433940355927       -1.48254881857938        2.19717983550607
H            4.10806895788513       -1.78065163647495        3.77585899469417
H            3.82468939332193       -2.92818654071368        2.47325061503121
H            2.05522194346140        1.00053588081162        2.34629924663264
H            3.35785408839868        0.61861911750201        3.46797221417336
H            3.68708527085376        0.71552706708793        1.73742091244102
H            0.68397750582773       -0.96123123450133        3.32318241561158
H            1.41014947044783       -2.57310979868007        3.34761018509773
H            2.01807185336771       -1.30220148300625        4.41037494542903
