89
 energy: -135.442054812684 gnorm: 0.000500611254 xtb: 6.5.1 (b24c23e)
Si           0.01663948945233        1.70342425360364        0.66307909296668
O            1.53265175410805        1.48922615941718        0.11935488639818
C            2.48698457546009        1.92749087799231       -0.81629879170657
C            2.17272456499825        1.36026009837151       -2.17975490422762
H            3.42675182174696        1.47731521047863       -0.46065888300663
C            0.95552565123519        1.62309584274606       -2.79524596645205
C            3.08597897076528        0.52619561583927       -2.81204984654411
C            0.65284486312476        1.04603230618782       -4.01569199758758
H            0.24186748594732        2.27439388869839       -2.31606089974624
C            2.78748276131751       -0.03837420547659       -4.03960475433817
H            4.03635678109012        0.31601805427649       -2.34077660197018
C            1.56643103148519        0.21414286818427       -4.64064076003182
H           -0.29940358422970        1.25205997209453       -4.48199526429896
H            3.50787348723113       -0.68162442267855       -4.52405268732268
H            1.32938829538198       -0.23335246641599       -5.59501108127737
C            2.68474868544577        3.45192095436193       -0.84684569384268
C            2.97403667990203        3.92844089365683        0.48861192894729
H            3.51717698534570        3.67480584084473       -1.51996514250417
H            1.78289510043433        3.94185720795453       -1.21543046877789
C            3.18910702089003        4.23696743402584        1.62432874210385
H            3.36594464793570        4.55259313791419        2.60853040692262
Cl          -0.28106963463804        2.37106240769357        2.59177759035818
Cl          -0.44555522866790        3.62641197441192       -0.20124974414541
O           -1.28944808728124        1.19899231963152       -0.30858460368059
O            0.10861428300768        0.04212346290915        1.40270390547139
C           -1.15709814722495       -1.10226784733539       -0.75828287685407
C            0.23491014317037       -1.25176752334674       -0.50000817142553
C            2.06390615783043       -1.20830192493036        1.07988465889979
C           -3.30154539965874       -0.01716347916303       -0.38589915856190
C           -3.93738700481801       -1.19502600355481       -0.74792757575680
C           -1.82599449507160       -2.16006268502672       -1.40761348756448
C           -3.18064474736936       -2.22049451244259       -1.37999352481261
C            1.05860142387740       -1.92607703474505       -1.42117941272477
C            2.37322036776892       -2.11942067654914       -1.13821842492850
C            2.89866920587305       -1.78135348948267        0.13360150011539
H           -1.24690728295089       -2.97049104984988       -1.81681792704084
H           -3.70638148138588       -3.06890032581544       -1.78789485617990
H            0.65941450785399       -2.18560225499221       -2.38727039604184
H            3.03761892206178       -2.54097576517623       -1.87581680865112
C            4.35262994642109       -2.00983916877232        0.25520914235234
C            2.39743255533629       -1.07181246401527        2.56420783514102
N           -1.93440708843587       -0.01029182762014       -0.39502815741509
N            0.80987338065585       -0.85695532427833        0.68314850720638
C           -4.03518256512382        1.29861988737026       -0.12311276229345
C           -5.33251290355386       -1.58870235566866       -0.47541912718776
C           -5.75048351690583       -1.75586773876433        0.84318335800664
C           -6.18985978452477       -1.96202410437087       -1.50578444790291
C           -7.86707932895115       -2.59519976652491        0.08835304740605
C           -7.45284384974095       -2.45012685162165       -1.22475298885279
C           -7.01023821133496       -2.25193247410470        1.12108955156483
H           -5.07468743529256       -1.50335283403834        1.64769396560042
H           -7.32279558637924       -2.37632241701539        2.14738352695185
H           -8.85128597303506       -2.98132254247934        0.30675538872709
H           -8.11454060912169       -2.72303216416012       -2.03356698397355
H           -5.86930405638127       -1.84807575728718       -2.53168969199894
C            4.88096662596925       -3.28348247390656        0.06609595405504
C            5.22668962709201       -0.93636685223165        0.40577947993069
C            7.10988162911150       -2.41217554532736        0.23225157682051
C            6.59454017764684       -1.13704414532486        0.39615998920141
C            6.24917617498924       -3.48420302508110        0.06724421125723
H            4.21054277074315       -4.12094291110136       -0.06518268422892
H            6.64529981402313       -4.48006725665976       -0.06614549375596
H            8.17809439740528       -2.56823932548967        0.22775638497319
H            7.26012022876262       -0.29455860506363        0.51341898462198
H            4.82786368511777        0.06016765107541        0.52645478292020
C           -5.56388595983004        1.17585500066786       -0.16937909348356
C           -3.67851358106238        1.86960829948790        1.25577447312117
C           -3.67335099641214        2.28676418567769       -1.25016884234428
H           -5.98193464137957        2.17915837543248       -0.11863539260960
H           -5.90736617563909        0.72137433733940       -1.09377362022511
H           -5.95632236819026        0.61442188211067        0.67142853473635
H           -4.35648590422535        2.68498146554650        1.49346228417072
H           -3.77988511385170        1.10512338720882        2.02335239334290
H           -2.67297410810988        2.26426127747070        1.29206089164472
H           -4.25016487954020        3.19826956453259       -1.11960345155965
H           -2.62624634940533        2.56105680790784       -1.24683504283931
H           -3.92484887279304        1.85462366656055       -2.21735654357498
C            2.76886821333122        0.36708198068178        2.94021138041906
C            1.18433827627340       -1.53025592403480        3.39637252531798
C            3.55548556724183       -1.99480913583605        2.97444280494285
H            4.51831300480096       -1.61845393012882        2.64852885793065
H            3.57940557202202       -2.05623916120993        4.06021532354230
H            3.41818542071686       -3.00043878603884        2.58424693198802
H            1.92791706301873        1.03682670986396        2.81232991446422
H            3.07422986998015        0.39711061001415        3.98336107638510
H            3.59125768631552        0.72930027621553        2.32943813809600
H            0.33422304400818       -0.86928564145545        3.27393671638421
H            0.89323779280307       -2.54156495612727        3.11552166899262
H            1.45517776398078       -1.53005701375516        4.44895172187378
