89
 energy: -135.446121870684 gnorm: 0.000294606304 xtb: 6.5.1 (b24c23e)
Si          -0.09911622693779        1.86682480470497        0.23529014597201
O            1.37955659770216        1.55432432554866       -0.37524578763461
C            2.14090324403707        2.14502256940244       -1.40787838829721
C            2.40787587446883        1.04180472305002       -2.40753884200914
H            1.54034794976542        2.92836552397723       -1.88845623329624
C            1.32250796091034        0.58193282353578       -3.14710814859563
C            3.63713206152149        0.41882777900068       -2.56458234286033
C            1.46291158407470       -0.47499306427009       -4.02599239144577
H            0.36417511653879        1.06593234609909       -3.02483513445417
C            3.77845645421477       -0.63967672199941       -3.44702779377065
H            4.50083882147218        0.75145521904404       -2.01098329785191
C            2.69464842632982       -1.09058482681220       -4.17812075582760
H            0.61188378378421       -0.81614129919946       -4.59775122124053
H            4.74329930055970       -1.11323500160972       -3.55916950256859
H            2.80885698828530       -1.91567942790293       -4.86611764683400
C            3.38800413538197        2.79699953104136       -0.80038200965645
C            2.99187243975357        3.84682531112068        0.11631722925650
H            4.00353210897478        3.21098889826096       -1.60293140352989
H            3.96302385888119        2.04979282309469       -0.24809298820550
C            2.61345669932300        4.67412959171011        0.89251992205292
H            2.28254065724928        5.40839707469393        1.56366286429785
Cl          -0.26135958238955        2.92956154648029        1.98828266946946
Cl          -0.60223176292279        3.54907978570226       -1.01998345446338
O           -1.44051614189161        1.16578115422880       -0.53420974888191
O            0.07273942532064        0.39079215076371        1.28664857040154
C           -1.24434615645152       -1.18160893330112       -0.56640794383062
C            0.15398725225855       -1.26733906466170       -0.31550871714345
C            2.00575917591223       -0.92570138838287        1.19821835334685
C           -3.40541401043029       -0.09360839225170       -0.27419288845736
C           -4.03427787438418       -1.28100054524607       -0.58260613858539
C           -1.90750872231537       -2.32577764093869       -1.05150297653736
C           -3.26415702458538       -2.37514984432492       -1.06574257083974
C            0.96998775627680       -2.10074670297613       -1.10656984239687
C            2.28694833151545       -2.24350327881871       -0.80723228636616
C            2.82600929014726       -1.68324539259623        0.37625636156288
H           -1.32637562640525       -3.18910971506291       -1.32836869648214
H           -3.78328806039979       -3.26193188835568       -1.39344019114954
H            0.56039783389308       -2.54217168263347       -1.99906571820271
H            2.94139759613441       -2.79759070461246       -1.46115701520421
C            4.27341474012501       -1.92139686133797        0.53792993756615
C            2.34429574083546       -0.51602147343120        2.63117638676036
N           -2.03379668361778       -0.06161953919146       -0.33728319927415
N            0.75527192083616       -0.63657216102501        0.74507089151683
C           -4.11689776283584        1.22068852174884        0.03338686307681
C           -5.47237457777468       -1.61940940251244       -0.46575201785769
C           -5.98664281763564       -2.05282203698164        0.75160971819237
C           -6.27758587647274       -1.66943271248038       -1.59826089175070
C           -8.10524306166951       -2.49579751974841       -0.28228830841714
C           -7.59058173984478       -2.09466680657362       -1.50343962052695
C           -7.29870069015444       -2.47995343175664        0.84305920980982
H           -5.35166096721910       -2.05235855896347        1.62593046795251
H           -7.69116664057521       -2.80658407939020        1.79470640828106
H           -9.12996514628554       -2.82778071864174       -0.20928340688187
H           -8.21220619312996       -2.11714930109248       -2.38628641125743
H           -5.87309505174492       -1.35944025342163       -2.55118160732944
C            4.77153666240924       -3.22077296565520        0.56153602188649
C            5.17330333481444       -0.85980354294884        0.51434548309085
C            7.02095839787632       -2.38648413780392        0.58424427966054
C            6.53588056816400       -1.08983201152949        0.53860067137861
C            6.13484304320539       -3.45029875648365        0.59666773730009
H            4.08207187611078       -4.05298552327002        0.56926625313083
H            6.50737880642484       -4.46357621177691        0.62831299506342
H            8.08523439499818       -2.56635886542389        0.60529842135821
H            7.22199880784314       -0.25572279933465        0.51916982917826
H            4.79321221027217        0.14928596956927        0.47301159992772
C           -5.59492630135167        1.05138043192871        0.40223440999383
C           -3.44057314628575        1.94927839337590        1.21208986122483
C           -4.07740848679730        2.08367582844080       -1.24216980574051
H           -6.00110432867287        2.03732848036785        0.61908338747855
H           -6.17641003050834        0.63211109200925       -0.41172748779676
H           -5.71873611511065        0.43274856040786        1.28608492357738
H           -4.19101814788169        2.39824476059894        1.85651674646500
H           -2.84861117527740        1.26983907959854        1.82078446953616
H           -2.79561794240049        2.74643506940402        0.86268058285520
H           -4.61068651470347        3.01292513952856       -1.06059370444474
H           -3.06130651262580        2.33029482428393       -1.53017169394014
H           -4.56198414363854        1.56016784885272       -2.06466160180447
C            2.75351347734471        0.95761861496074        2.72721450153260
C            1.11932266315004       -0.77289293496875        3.53072486212183
C            3.47558383957245       -1.37671816670339        3.21500650629173
H            4.44790276087983       -1.10612884625654        2.82005679306050
H            3.50710000401115       -1.22227810175490        4.29118106182290
H            3.30249602469561       -2.43450370345089        3.03126621568486
H            1.97308029695025        1.61146801395758        2.35821341997288
H            2.94499550435127        1.21010296591476        3.76711097683365
H            3.66018116316963        1.14530424779922        2.15902839909863
H            0.30620284693346       -0.09057527157852        3.31212107698561
H            0.76831309473087       -1.79708829724319        3.41114021645081
H            1.40350633893485       -0.62697631551351        4.56949513116184
