69
 energy: -118.572308373855 gnorm: 0.000947417720 xtb: 6.5.1 (b24c23e)
Si          -0.29131648660226        1.36726182141184        1.14902390688534
O            0.13652602971866        2.55276916184942        0.12926070771740
C            0.06838952716036        2.61543428354736       -1.28237049772772
C            1.23860352671741        1.85115756802615       -1.84720429186033
H           -0.86710962261741        2.15602483980740       -1.61661472074517
C            2.53614119370342        2.25957492473488       -1.56545498298124
C            1.04106478464868        0.69219290903907       -2.58500891028110
C            3.61576667339537        1.53320527054339       -2.03361035254553
H            2.69813584338212        3.14337501618698       -0.96821711679340
C            2.12164318767322       -0.05148141197225       -3.02728469243331
H            0.03401137225182        0.36874656219547       -2.80428129513164
C            3.41218773953570        0.37022996208412       -2.75798257785818
H            4.61987953007354        1.87836143232726       -1.83267729239492
H            1.95611212030174       -0.96080778025122       -3.58727277619810
H            4.25568212466262       -0.20708393943320       -3.10777148997200
C            0.07667434250453        4.09685915119843       -1.69115379766207
C           -1.20144105366069        4.71227077128893       -1.40388276539535
H            0.29263171964333        4.17228651333266       -2.76064720523620
H            0.85468754285955        4.61655192992258       -1.12869351037255
C           -2.27027704358308        5.18979908631765       -1.15778920065922
H           -3.19484730143981        5.63279221724062       -0.93453533816147
Cl           0.57575021476458        2.41324506831534        2.74841300482841
Cl          -2.17044276421666        1.21639992554144        2.01947466709801
O           -0.86113908851876        0.35441953468575       -0.31724908630100
O            0.65387558052886        0.01485513724233        1.59808574112880
C           -0.94346457826675       -1.92446078649642        0.15883743785565
C            0.46989541225862       -1.97085016263950        0.27520521954119
C            2.57802559671148       -0.89250869579482        0.72027907568880
C           -2.92623899708057       -0.65368642030518       -0.27357538637521
C           -3.74495831586102       -1.76565508395507       -0.11792945902966
C           -1.75454636417150       -3.07764142424917        0.25553541504034
C           -3.11167565030406       -3.00240787957689        0.13983789763200
C            1.19947394540906       -3.09789077249663       -0.15985888119401
C            2.56151250156170       -3.11192711861953       -0.17591669434677
C            3.30052569775026       -1.97397897235516        0.24591037349273
H           -1.27971430691064       -4.01620706962041        0.48974808616033
H           -3.71901991293079       -3.88367100617949        0.27233473861752
H            0.64549171196109       -3.94030554788133       -0.54110413406072
H            3.09230368221194       -3.97104125246300       -0.55272011875811
C            4.76326411521610       -1.99362547022805        0.22681276139748
C            3.16557117280462        0.26796595752725        1.26705195292955
N           -1.58920189869688       -0.74920090836039       -0.12403654914002
N            1.21871731950912       -0.92463441484537        0.78026288351009
C           -3.39852765263510        0.60551971356280       -0.70685299335770
C           -5.20023643489453       -1.65510144230596       -0.20465877668204
C           -5.86213562318326       -0.58481093826180        0.39788568333732
C           -5.94895116878682       -2.63179709728908       -0.86083906756563
C           -7.97491289679379       -1.46285052148326       -0.33026699831763
C           -7.32541013206454       -2.53145365656144       -0.92630249066672
C           -7.23919101892281       -0.49430386093887        0.33368654660461
H           -5.29269941522063        0.15592867143759        0.93817454954402
H           -7.74235732876930        0.33386459095047        0.80986710962813
H           -9.05092369503974       -1.38803781453750       -0.38001741529550
H           -7.89438759342579       -3.28911227458547       -1.44505072362683
H           -5.44639874227509       -3.45814879969295       -1.34280319850457
C            5.44410856998741       -3.16414323517422        0.56787826740620
C            5.50669811865001       -0.86894958092485       -0.12858231976539
C            7.55287661306001       -2.08202678257439        0.19685067658409
C            6.88729472250823       -0.91646064278837       -0.14550980939228
C            6.82479196392520       -3.20422182379591        0.55636765484995
H            4.88822513443768       -4.03812972763448        0.87413274399519
H            7.33621887824502       -4.11467138187743        0.83242232958024
H            8.63190082081254       -2.11586900093468        0.18555420058718
H            7.44856992510830       -0.03853863090745       -0.42962494939061
H            4.99257033575203        0.03524305205133       -0.40888849182303
C           -3.68755596021129        1.68197270655081       -1.15449451009767
H           -3.96915101853477        2.62942366354283       -1.50626165619439
C            3.54999727883600        1.28331058431064        1.78191150303937
H            3.90427749537248        2.16430630322331        2.22813238961712
