69
 energy: -118.572131791264 gnorm: 0.000546710544 xtb: 6.5.1 (b24c23e)
Si          -0.15420083726321        0.80542180407951        1.43454537494968
O            0.10323636551399        2.14526749528568        0.56245310220183
C           -0.26238408029829        2.50355963198861       -0.74681979788915
C           -1.65135334741298        3.08935013457186       -0.78419987352288
H           -0.22941399035451        1.61790304925023       -1.39004879001560
C           -2.22258771492738        3.63855644741260        0.35430404766375
C           -2.36529206776115        3.09690724372406       -1.97623164288955
C           -3.49633970431415        4.17776097969632        0.30500152761709
H           -1.66752243992033        3.63157920222735        1.27952957876331
C           -3.63402708096448        3.64575917201584       -2.02747067860722
H           -1.92630548272254        2.66453083888296       -2.86440663547286
C           -4.20398491389409        4.18468289407681       -0.88501659224804
H           -3.93568014450545        4.59489962797532        1.19876792288818
H           -4.18254777637144        3.64653942299897       -2.95873713781097
H           -5.19778401369150        4.60695436540578       -0.92379246776283
C            0.77180662450157        3.53153059985997       -1.24786260313606
C            2.05281767709279        2.90124795899074       -1.48359047529186
H            0.40788966559670        3.98722818330880       -2.17228452091283
H            0.88053715289833        4.30587890521681       -0.48502245033666
C            3.09299289679929        2.33971246455289       -1.67099349636950
H            4.02066546540693        1.87473438299758       -1.82664284082134
Cl          -1.91619975925786        0.14758083433022        2.31574175328926
Cl           0.51916211336397        1.79994226549516        3.16613645432795
O           -0.60751177648819       -0.10300871936172       -0.14759035254276
O            1.08119215489236       -0.35489691943671        1.65532695053678
C           -0.01957853799614       -2.35747913526618       -0.05477686827952
C            1.35541095290924       -2.00358219238457       -0.03647269545831
C            3.06258322953989       -0.37960429582206        0.45867357295622
C           -2.30739664933354       -1.66365980903564       -0.15585005635364
C           -2.76135730672365       -2.97814911929403       -0.15697206619718
C           -0.45954450578710       -3.69636663757623       -0.11866128354385
C           -1.78833895024644       -4.00338094199552       -0.14822766310710
C            2.31694728497716       -2.72995634825146       -0.76764574229257
C            3.58623530711085       -2.25946497423019       -0.93541829181457
C            3.97800276986582       -1.02498026498296       -0.35350971964266
H            0.28323455049866       -4.47653745460300       -0.08143265514991
H           -2.11129835874355       -5.03217991087445       -0.14023722354910
H            2.00204285362872       -3.63703616481330       -1.25798478641957
H            4.30321166512898       -2.81223063640643       -1.52097306378575
C            5.30228580466133       -0.46169652383116       -0.63208310492956
C            3.32370549077883        0.82830328691723        1.13734462258336
N           -0.98890778832891       -1.38510278091653       -0.09011831282032
N            1.81954642008750       -0.89634213629541        0.64479973717686
C           -3.16583496636528       -0.55756415870006       -0.34134655948072
C           -4.18981591262222       -3.29199845040743       -0.17062483445391
C           -5.08202607719693       -2.57965842106834        0.63096931380178
C           -4.67505443219370       -4.33180683997368       -0.96374835987360
C           -6.90185382050143       -3.92518982626749       -0.17192781732436
C           -6.02157003424300       -4.64105746600046       -0.96659432519056
C           -6.42653469165977       -2.89796684663799        0.62732032017967
H           -4.71107763313300       -1.79530051358506        1.27265360252146
H           -7.10751072641171       -2.34461173450479        1.25650100126212
H           -7.95354645456382       -4.16994702184127       -0.17354086202816
H           -6.38643112766276       -5.44276681935736       -1.59186482329793
H           -3.99611912417970       -4.88153517792104       -1.59973352789148
C            6.09262305647940        0.08803878432855        0.37580925757974
C            5.79244533697583       -0.47945934507609       -1.93881625787163
C            7.80833923714319        0.60454148190685       -1.22340266847410
C            7.03253030468977        0.05524520635415       -2.23122044909639
C            7.33562049027610        0.61443973166469        0.07876045957364
H            5.73698163098237        0.08437915867317        1.39422220586272
H            7.94033273885288        1.03312989086622        0.86923716403530
H            8.77755781872273        1.02121563470010       -1.45254886770755
H            7.39381007430504        0.04610645124132       -3.24922368834284
H            5.18226517582739       -0.88971823776698       -2.73119481392155
C           -3.83132706375116        0.41372441171703       -0.57809725507755
H           -4.43254290167182        1.25665547751416       -0.74641334983133
C            3.44087545843895        1.85096760194186        1.75682203993383
H            3.55594342551084        2.74619380231360        2.29121933912188
