69
 energy: -118.573015535414 gnorm: 0.000313370771 xtb: 6.5.1 (b24c23e)
Si          -0.28615559051604        1.11882890912332        0.87656895001812
O            0.50821328102702        1.81735458194032       -0.34343848644394
C            1.32920042803701        2.95248877903076       -0.41421773364239
C            2.66005240235862        2.56427357402887       -1.00715154630907
H            1.47239855013014        3.36450114388173        0.59250663530823
C            2.73359613856509        1.53078514922183       -1.93136071001518
C            3.81968267743241        3.23677256360618       -0.64598428188947
C            3.95058624727253        1.16954844097702       -2.48154390312965
H            1.82833893191339        1.00800408117348       -2.20088630066031
C            5.03629862112355        2.87701481967249       -1.19873125484102
H            3.76596704542709        4.04058624025918        0.07452323814608
C            5.10461498031088        1.84232488694281       -2.11630960139097
H            3.99927498881242        0.36396106233571       -3.20072825268160
H            5.93483769525580        3.40320490760268       -0.91081878710296
H            6.05484821106132        1.56119782987751       -2.54639642793651
C            0.62890950910618        4.00618537289407       -1.29668499848994
C           -0.63324568150395        4.38907368216730       -0.70137092343591
H            1.27886715982068        4.87864140541876       -1.39964258218830
H            0.45087092716116        3.57152268743242       -2.28380345668906
C           -1.67290607609520        4.65378120569913       -0.17203832590202
H           -2.58194711978188        4.89526353057629        0.29199214274046
Cl           0.63908845397052        2.18188645075980        2.50135267587443
Cl          -2.19209599141689        1.54047601950338        1.57318167793096
O           -0.96087429048749        0.08882249081645       -0.48623034435987
O            0.33157417022995       -0.31262133150583        1.58292658310814
C           -1.46546888483077       -2.07413285646980        0.23519663467710
C           -0.08443118113989       -2.33917636736866        0.41816760470785
C            2.13745019634690       -1.47001587226562        0.71510397148684
C           -3.17726725431682       -0.54472835105830       -0.43962354295089
C           -4.17968563613750       -1.48097032945888       -0.21124175730431
C           -2.46373686473570       -3.05681003363508        0.41054581096592
C           -3.78255245691319       -2.76883590516918        0.21316798355642
C            0.49206968405726       -3.59025473802889        0.11135191281807
C            1.84479990683422       -3.75246446215101        0.04818300764894
C            2.71399015616738       -2.65348388518036        0.28209736852343
H           -2.16268120651682       -4.02952338439215        0.76371312640571
H           -4.53846952069277       -3.51443616088864        0.40216632305875
H           -0.16620655450802       -4.40274716666697       -0.15037962435871
H            2.26716859026950       -4.70151431347840       -0.23967611019005
C            4.15883749509563       -2.77528130634269        0.09026558549858
C            2.88517589164836       -0.35246495262129        1.14144397706492
N           -1.88256238191177       -0.84202187975130       -0.20580320214126
N            0.79272873043039       -1.36115323533294        0.84320317714574
C           -3.42484724709097        0.71228474288073       -1.03420832054944
C           -5.59062472857399       -1.14416311295770       -0.40067043439772
C           -6.09231212892481        0.07598497070988        0.05275175971804
C           -6.45928458011331       -2.04958308126252       -1.00918229533372
C           -8.28354067903409       -0.51807695691893       -0.72906231305404
C           -7.79423623588944       -1.73445106900728       -1.17604485291624
C           -7.42957682964984        0.38173553343168       -0.11161778791400
H           -5.43298136847041        0.76710376910485        0.55507320794355
H           -7.80971601902404        1.32590852709667        0.24877716116278
H           -9.32747795369739       -0.27450425475295       -0.85865733039561
H           -8.45575548587175       -2.43948391192821       -1.65791801558852
H           -6.07904189360699       -2.99222205875988       -1.37587928883874
C            4.82772340561618       -3.93740217296685        0.47635947771914
C            4.88966599811453       -1.74349637451398       -0.49970019961193
C            6.90874141304944       -3.02590698156116       -0.29476280419589
C            6.25197506409144       -1.87152892729772       -0.68874461468781
C            6.19107425100118       -4.05749813333063        0.28829962762559
H            4.28015053653114       -4.73752089759422        0.95260724097964
H            6.69753133903798       -4.95896235829353        0.60065188298563
H            7.97402418764555       -3.12258169299465       -0.44158407770586
H            6.80252745366284       -1.06483433551963       -1.14924448251633
H            4.38488344259412       -0.84752355177477       -0.82699655302145
C           -3.56077533954973        1.75615328537695       -1.61206426767680
H           -3.69975298610650        2.68463556913605       -2.07967814579189
C            3.44074316230908        0.63108194227055        1.55019039420815
H            3.94222284358211        1.48271624824773        1.90098979919675
