69
 energy: -118.568617356841 gnorm: 0.000754795582 xtb: 6.5.1 (b24c23e)
Si          -0.03711733887980        0.93832967008983        0.80884058555499
O            0.70885904595252        1.59609736070931       -0.46987287459076
C            1.42247156057777        2.79857513414418       -0.59167467860809
C            0.50138110486640        3.99092283803869       -0.54561496609884
H            2.14875914727732        2.86915420003677        0.22774739393972
C           -0.79629386153489        3.88872431401021       -1.02668894312000
C            0.94527327841226        5.20017748711852       -0.02906694824424
C           -1.64136707199802        4.98306854595445       -0.98502400346255
H           -1.13976719649546        2.93998887149656       -1.41193614921103
C            0.10074120868682        6.29494398630965        0.00570210770214
H            1.95062372235126        5.27708317064206        0.35856373417363
C           -1.19445646124608        6.18840018141201       -0.47196563021260
H           -2.65354006286657        4.89871935785015       -1.35315213734876
H            0.45089396012028        7.23110462251142        0.41511292156962
H           -1.85600719116086        7.04169879291035       -0.43773044021508
C            2.16925845532355        2.74678045365230       -1.93878781246774
C            3.15010822700157        1.68287753282317       -1.94416490370814
H            2.66150462773214        3.70718344234913       -2.11117369326664
H            1.43766000570739        2.57229573829613       -2.73132221549098
C            3.94983867920066        0.79340235528851       -1.90588103086610
H            4.65797667204017        0.01938706386504       -1.88713168925492
Cl          -1.90988874856348        1.27241381670437        1.64433286715016
Cl           0.92597664634739        2.12337186684028        2.33279929978061
O           -0.77971937374177       -0.11096547156089       -0.49729494202275
O            0.66838827503139       -0.45512572069228        1.50648886059466
C           -0.98782927239051       -2.33343807963970        0.18999201927990
C            0.42666889343884       -2.45284639980535        0.26031915425778
C            2.57022778172230       -1.41589573208552        0.59401036563134
C           -2.90614096585005       -1.01079712152728       -0.35354379888538
C           -3.76971546118242       -2.07076599677157       -0.10590076863840
C           -1.84690998326123       -3.42774883099556        0.41654872186819
C           -3.20034655660212       -3.29779897211343        0.30712753708154
C            1.09715859746136       -3.60064332452090       -0.20609828386157
C            2.45529096836878       -3.62324938138436       -0.33787904792795
C            3.23107293115678       -2.49217066300016        0.02741086985100
H           -1.40681062905900       -4.36131489171279        0.72797154304650
H           -3.85001593939403       -4.13494060922164        0.50763749240268
H            0.50157249681759       -4.43828874262547       -0.53223402022042
H            2.95471313730901       -4.49496703389387       -0.72939860945823
C            4.67742901411092       -2.47550646223448       -0.21082928441736
C            3.22175402129495       -0.25511278600983        1.05854766853283
N           -1.57187317201164       -1.14665787170160       -0.18514765099458
N            1.22151342160752       -1.43484220567013        0.74091956973169
C           -3.35600984704888        0.24758411155783       -0.80976704364608
C           -5.22220092575740       -1.95043471023998       -0.26455235006658
C           -6.06567041512294       -2.45347285629534        0.72550930288922
C           -5.78673702675976       -1.37516247288473       -1.40134134299112
C           -7.98996132045932       -1.78821460813363       -0.54177544542804
C           -7.16003710509562       -1.29738619792044       -1.53604281687041
C           -7.43772729725082       -2.36637273309796        0.58938426920668
H           -5.63892532508892       -2.88906153545630        1.61715501465724
H           -8.07929231054243       -2.74976516478715        1.36900410121527
H           -9.06235412579807       -1.72282353974142       -0.64865091201724
H           -7.58566754447171       -0.85480970920244       -2.42459566486413
H           -5.14574107785404       -1.00909324408087       -2.18831989790371
C            5.57565123380231       -2.03147467650687        0.75808365088755
C            5.17379277594054       -2.92094608825230       -1.43656993159890
C            7.41637954419605       -2.45332641237972       -0.72545491016167
C            6.53173875245228       -2.90327672626316       -1.69230117456191
C            6.93357064161752       -2.02305503401888        0.49961912454226
H            5.20704439815725       -1.71046079945537        1.71968498703183
H            7.61962680782671       -1.68063652247370        1.26006541241383
H            8.47721279011686       -2.44025370430907       -0.92590520209559
H            6.90130249356654       -3.23838340276378       -2.65041291534151
H            4.48507095590645       -3.25358338357092       -2.20020108376370
C           -3.70516980736984        1.31588086310779       -1.23260125940502
H           -4.02648689933229        2.25373228730538       -1.57529711274748
C            3.69787687127451        0.75988320758334        1.48987486458243
H            4.12626016940471        1.63784254639396        1.87198414648148
