69
 energy: -118.562906994141 gnorm: 0.000661398822 xtb: 6.5.1 (b24c23e)
Si          -0.01178503912345        0.90069201895420        0.37379774249761
O           -1.00544185575436        2.08840761514811       -0.17217590380094
C           -0.85878024525486        3.47855238627135       -0.27446024283791
C           -2.15420025018156        4.03695246072704       -0.80926125889170
H           -0.03646807535444        3.69791850619855       -0.97220096425790
C           -3.34463227895703        3.72223686173168       -0.16622187949687
C           -2.18124806445573        4.86425096750394       -1.92177828245005
C           -4.54533517003004        4.22360844524978       -0.63336895445121
H           -3.31018067743478        3.07621882685779        0.69780188595608
C           -3.38336794024137        5.37117044331848       -2.38599924383160
H           -1.25816799542774        5.11120285172833       -2.42654438494443
C           -4.56693901599797        5.05096781880612       -1.74433475002984
H           -5.46940154301909        3.97629943875163       -0.12977414498197
H           -3.39574133974742        6.01493437731913       -3.25356411878446
H           -5.50464325196006        5.44415594951316       -2.10941421955381
C           -0.54268943105604        4.14000453381133        1.08651965765015
C            0.85299921594177        4.00607447107569        1.43573654887762
H           -0.79882361166979        5.20170537074249        1.02546199044604
H           -1.15705503122897        3.66554242473301        1.85461216518978
C            2.01915239481308        3.88892782041904        1.67660918865205
H            3.04270296921001        3.79029115332450        1.87928509002021
Cl          -0.69040567795394        0.95689984190719        2.33392213032810
Cl           1.69753529388755        1.57307494219707       -0.67155463304813
O           -0.75708489558610       -0.20232060857871       -0.68309224592100
O            0.98491494694007       -0.50029699990318        1.08009839193646
C            0.01577903276753       -2.45745748546969       -0.58203510973606
C            1.39572590078004       -2.11909466635700       -0.54811620614829
C            3.15958478944004       -0.79883697455388        0.38109299761551
C           -2.28887636769016       -1.86608961145936       -0.21631006262720
C           -2.69103629276977       -3.18767065544041       -0.27077230635256
C           -0.39988183933621       -3.79594967668440       -0.72690027345702
C           -1.70478387699220       -4.16292224853836       -0.57303838409979
C            2.36395543569735       -2.80757945611136       -1.30978194274734
C            3.68214263587670       -2.45637416796887       -1.26395833397107
C            4.11752859849917       -1.41441417334896       -0.41566792575312
H            0.35710604298055       -4.54427117810021       -0.89802603310298
H           -2.00099108861302       -5.19507212257755       -0.66761531603278
H            2.02717141150903       -3.57637154556592       -1.98598951478475
H            4.40080724834562       -2.95061240343608       -1.89831942618079
C            5.51403337453798       -0.98038945169931       -0.39321044652029
C            3.48067099762579        0.12319534692799        1.40109492799884
N           -0.98865201995399       -1.51925453709737       -0.42518695266031
N            1.85874774238679       -1.14284128569852        0.29379118544526
C           -3.17261717197016       -0.80198486720237        0.05787192157786
C           -4.08069858764796       -3.59227902403890       -0.03325643708732
C           -4.34896078217361       -4.69514113719678        0.77678084198456
C           -5.14600072609922       -2.91695813198176       -0.62573424602828
C           -6.70361997304893       -4.41766286536428        0.41609482813801
C           -6.44578297318591       -3.32965569148885       -0.40132027695556
C           -5.65064956370509       -5.09919212795586        1.00369741897473
H           -3.53167940609885       -5.21969121903197        1.25018756018712
H           -5.84505231879508       -5.94828446682349        1.64227364688091
H           -7.72036949892930       -4.73517283992458        0.59250017906094
H           -7.26242057553506       -2.80119535545885       -0.87041812667431
H           -4.95036131137330       -2.08071941524582       -1.27882677139153
C            6.55120262316793       -1.91145490763459       -0.42927812400626
C            5.82444668665742        0.37967624419767       -0.37360503805812
C            8.16804881516682       -0.13983401513930       -0.40135620740161
C            7.14285956534604        0.79218856339595       -0.37818433830332
C            7.86781412666533       -1.49184297080336       -0.42812174736874
H            6.32261623306966       -2.96753083153758       -0.43294007445653
H            8.66369573001028       -2.22197872079143       -0.44747506012930
H            9.19759686534420        0.18579768890501       -0.40320058628377
H            7.37308450228943        1.84720213639572       -0.37030370380412
H            5.02555422752391        1.10527552549621       -0.38528457539408
C           -3.88319951856288        0.13781652914581        0.29173415766378
H           -4.52487653086022        0.94258391813228        0.49204537919416
C            3.68128490506011        0.83380169540851        2.34805597977622
H            3.87419750228170        1.47251066189139        3.15757395873090
