69
 energy: -118.572114923669 gnorm: 0.000965292896 xtb: 6.5.1 (b24c23e)
Si           0.01443352915521        0.84067258638958        1.35825972079457
O            0.58717558863698        2.08063308349865        0.48727841650214
C            0.39647963167390        2.45981582415569       -0.85294652626462
C           -0.85725768123946        3.28016505388219       -1.02027399251847
H            0.32517325677116        1.56419424467455       -1.47925953650859
C           -1.39295729565133        3.98691928944997        0.04648592457497
C           -1.47240356866062        3.35313176336035       -2.26389249091872
C           -2.53371351325685        4.75165348495949       -0.12615255390209
H           -0.91598430283946        3.92619329672199        1.01246989255975
C           -2.60663699517880        4.12541324348502       -2.43855754211354
H           -1.06201613855059        2.79852980842158       -3.09614615420208
C           -3.14105051832951        4.82564543056650       -1.36852153054821
H           -2.94756094271254        5.29280816959022        0.71177173782317
H           -3.07858215713289        4.17594739544763       -3.40945607614194
H           -4.02980557967266        5.42528438379514       -1.50412538938609
C            1.63310453740452        3.27738622615846       -1.27851040229708
C            2.78927026812780        2.42134513795308       -1.43208928832898
H            1.42155233103065        3.78677606894429       -2.22220342831189
H            1.83012455258839        4.02304197478324       -0.50493937973374
C            3.71459219319154        1.67224846949172       -1.55525450706040
H            4.54806444787859        1.04290720861717       -1.65677769444140
Cl          -1.86985945079511        0.58778034078243        2.19427098133124
Cl           0.83855968932754        1.68979266011285        3.10122550488891
O           -0.58326406934957        0.04015352387726       -0.23532251355964
O            0.95074289329375       -0.56564373929831        1.62206744725234
C           -0.49730364037109       -2.28749423972068       -0.13223406167560
C            0.92050327714332       -2.23735247906467       -0.07034359675496
C            2.92285811831209       -1.02744782878313        0.50104983437841
C           -2.57944502326936       -1.11737065290621       -0.27585845480426
C           -3.30639226281957       -2.30332452015209       -0.28405492908669
C           -1.21358922177253       -3.49970955724355       -0.21879188804577
C           -2.57695312686322       -3.51365316691289       -0.27193142284517
C            1.72642036951642       -3.15194923617744       -0.77808213781757
C            3.07299125144985       -2.96926633942321       -0.89786876215733
C            3.70407709060209       -1.85455287983149       -0.28567461370365
H           -0.65771839194584       -4.42227259010240       -0.17752266883524
H           -3.11313446105041       -4.44923647736323       -0.27925655629741
H            1.23952830981291       -3.96661946760219       -1.28966516520475
H            3.67194242267988       -3.66174481180504       -1.46721908915200
C            5.12975181587192       -1.59394913956441       -0.50635796892770
C            3.41736618318189        0.09203692617608        1.20075693573138
N           -1.23380878402592       -1.12902363735123       -0.18596235923876
N            1.59014864249152       -1.25838211765310        0.63617122757949
C           -3.17771744333594        0.14530790836982       -0.48094469030764
C           -4.76877464451667       -2.29742629947706       -0.30066376699859
C           -5.48073008960582       -1.40619120687875        0.50277239085095
C           -5.47261625956597       -3.20507424140140       -1.09199185102485
C           -7.55373620599425       -2.31772817490585       -0.29571132337195
C           -6.85428098281760       -3.20996275288571       -1.09171423121470
C           -6.86219655403906       -1.42040172199471        0.50221017351729
H           -4.94513241548079       -0.72311145781844        1.14405586896299
H           -7.40296991845842       -0.73072220768139        1.13288035803940
H           -8.63348285842389       -2.32479243068136       -0.29504142721794
H           -7.38833337206199       -3.91174653064887       -1.71557581402539
H           -4.93322156771744       -3.89123938960294       -1.72907917050758
C            5.98191488919420       -1.24775005440904        0.54074600097515
C            5.65384647753856       -1.69908566513102       -1.79538376645404
C            7.82941653216503       -1.09566118313014       -0.98608520117620
C            6.99139419539916       -1.44528541570180       -2.03241877043098
C            7.32073032442422       -1.00303359020251        0.29907280463751
H            5.59498783043630       -1.18876046100911        1.54599878224915
H            7.97171494192772       -0.74037756073481        1.11950708402543
H            8.87440878927203       -0.89842594329158       -1.17220471640470
H            7.38095825513668       -1.51719006183149       -3.03736952827695
H            4.99968276549419       -1.95291974792992       -2.61756443500250
C           -3.62023537970864        1.23174768085681       -0.73765836213871
H           -4.02430876487306        2.18154359239964       -0.92407600355141
C            3.73897485902787        1.06344205284978        1.83043174879823
H            4.03174932192892        1.90433614853240        2.38509390341808
