69
 energy: -118.573890519887 gnorm: 0.000620885691 xtb: 6.5.1 (b24c23e)
Si           0.41715375464366        1.57697452980921       -0.38186029767776
O           -1.16714797958390        1.51590782425244       -0.02175201098155
C           -2.02343333455075        2.29050207050822        0.78466087921106
C           -2.81711071555747        1.31317580367776        1.62767269856095
H           -1.41208675785690        2.93333476428934        1.43451183476465
C           -2.13601337005340        0.23867707905405        2.19265194652047
C           -4.18792836923448        1.40794760547274        1.82866116282913
C           -2.80906569995586       -0.73477567139872        2.90542841022337
H           -1.06564686584643        0.17285810681309        2.06624034275339
C           -4.86140816694903        0.43814557217949        2.55354875799546
H           -4.74787494983254        2.23660719121716        1.42383097347189
C           -4.17940538031541       -0.64260652279734        3.08136406187249
H           -2.26232197910297       -1.56625144424883        3.32676546572226
H           -5.92844975412362        0.52561554528621        2.69692515220559
H           -4.71057007615016       -1.40409870635650        3.63286941494915
C           -2.89339737260567        3.18472336686885       -0.11371494227318
C           -2.05946839235943        3.97119931106995       -0.99924990296251
H           -3.48552176245406        3.85618230479912        0.51251918120218
H           -3.55743584939909        2.55617808086386       -0.71496036946622
C           -1.34634056048829        4.58743520508055       -1.73542361014170
H           -0.71229743999685        5.12665755034890       -2.37297031414761
Cl           1.20752092751728        2.34616734642242       -2.09946847513199
Cl           0.93658229529736        3.24300321906774        0.85639107084842
O            1.36460255017811        0.62949128402580        0.69353372887711
O            0.16303497495254        0.05166298920458       -1.38551259783947
C            1.51381592611082       -1.69536338944521        0.22309484592912
C            0.12075854099346       -1.83255936071182       -0.01131690776850
C           -1.86850091818260       -1.00629291441448       -1.04696878201660
C            3.45772621334461       -0.27589687767864        0.29029837495667
C            4.31308666485426       -1.36297589547511        0.27223363087200
C            2.37493686099002       -2.80816144642819        0.29815136006995
C            3.73065983664359       -2.65697446242287        0.32363337301490
C           -0.63366485085065       -2.90898743009839        0.50214623699542
C           -1.97668086185199       -2.99567088558264        0.28494658214107
C           -2.64282058101196       -2.02126193096772       -0.49410375122480
H            1.93618795672743       -3.79258034106135        0.26836118926989
H            4.37696925320050       -3.51877601205723        0.36626073738176
H           -0.13092084462008       -3.62851069871653        1.12790879486783
H           -2.55180353492718       -3.79008444879846        0.73297837258649
C           -4.08978299517803       -2.08923437862026       -0.69229323392914
C           -2.37729048779000       -0.05620361083738       -1.95901141019969
N            2.11034067926463       -0.45695488556644        0.34394838097551
N           -0.54433321365767       -0.93020350886664       -0.80402868501453
C            3.88177384967056        1.06805411124450        0.24271627586339
C            5.76900970620925       -1.20850277666439        0.20682136667746
C            6.51633182158026       -2.04396577300523       -0.62337762611369
C            6.43439861658621       -0.25909508563728        0.98078105488003
C            8.54297986348336       -0.97320278509217        0.08200763862440
C            7.81024056165162       -0.14592256647101        0.91702471456736
C            7.89094353299639       -1.92215274227327       -0.68808938480605
H            6.01149258954962       -2.77328165728362       -1.24027201786580
H            8.45619704144849       -2.56892483091262       -1.34296195917973
H            9.61750008229015       -0.88047913067457        0.03249130188659
H            8.31402284027516        0.59009224551531        1.52575262415441
H            5.87191869174912        0.37583761722741        1.64757308593643
C           -4.71786039480948       -3.31900591018238       -0.89324887756382
C           -4.87291633303557       -0.93659423863507       -0.64272748078195
C           -6.85784223818668       -2.23959450457066       -0.99187708612135
C           -6.24406644731458       -1.01451289466536       -0.78764391428332
C           -6.08886368431357       -3.39047632883057       -1.04681865434133
H           -4.12426811078716       -4.21957163798667       -0.95570404574509
H           -6.56061378137444       -4.34831636653365       -1.21060484435706
H           -7.92984811563264       -2.29822918732550       -1.10632523958904
H           -6.83889322922238       -0.11464824040485       -0.73594906134152
H           -4.40180554311571        0.01520145768048       -0.45796774765101
C            4.12775621837192        2.24231551679113        0.17684082746510
H            4.35931399630603        3.26415144663492        0.12233111039904
C           -2.71233749454193        0.74707992482645       -2.78664113159782
H           -3.02867741005972        1.46255940946736       -3.48585759940479
