69
 energy: -118.573040190980 gnorm: 0.000395091169 xtb: 6.5.1 (b24c23e)
Si          -0.28079707370310        1.10830284179777        0.86055156227145
O            0.54772852642033        1.79259111098071       -0.34513537459987
C            1.35207167402734        2.94041133699772       -0.40604190787910
C            2.70260688373078        2.56995622729625       -0.96448004125463
H            1.46623064466936        3.36135185215613        0.60064833438625
C            2.81399429857222        1.54295371984965       -1.89205083711884
C            3.84405230903852        3.25235347060790       -0.56575217971567
C            4.05041349907214        1.19773110027752       -2.40826070213009
H            1.92272874430684        1.01211857306883       -2.19091321703164
C            5.08010743439187        2.90857330554212       -1.08442108802717
H            3.76059137459754        4.05098601988395        0.15765973307993
C            5.18613712700642        1.87992129543986       -2.00518752788200
H            4.12878881689481        0.39743549689696       -3.13070370478382
H            5.96420113985274        3.44230108581789       -0.76711379177303
H            6.15161789031611        1.61116331341573       -2.40838326511234
C            0.65475069686725        3.97688101042967       -1.31065623923476
C           -0.61700256590785        4.35765345166771       -0.73464193491498
H            1.29909646996427        4.85301302777008       -1.41745175636402
H            0.49193796248585        3.52768138512623       -2.29385393541490
C           -1.66456648827355        4.61540691454088       -0.21740129525842
H           -2.57943884262365        4.85567466320565        0.23567401095245
Cl           0.62390546399021        2.16716771232849        2.50046836217297
Cl          -2.19489802752678        1.54797042035518        1.52416591571837
O           -0.94369639406317        0.08137292080823       -0.51048366067109
O            0.31686405925645       -0.32525023363520        1.57795273659597
C           -1.47191352327637       -2.07640836643642        0.20980971829279
C           -0.09483392523604       -2.34987315196873        0.40965095680499
C            2.12772847762841       -1.49245688895566        0.73261673153891
C           -3.16459443410784       -0.53949396808693       -0.49543260565182
C           -4.17570606273261       -1.46886285039130       -0.27761864484038
C           -2.47851091294963       -3.05162255135762        0.37772825001488
C           -3.79262787546671       -2.75631968197553        0.16118386699644
C            0.47796876481681       -3.60411792993678        0.10942513850950
C            1.83050335346790       -3.77345108814361        0.06170290558290
C            2.70263274712300       -2.67907711283132        0.30616867815539
H           -2.18812027453174       -4.02412841471626        0.74038742795922
H           -4.55587116533997       -3.49564659903168        0.34526489479522
H           -0.18195473260745       -4.41271066030055       -0.16022762611346
H            2.25131215035107       -4.72446253761828       -0.22197726246941
C            4.14907680640405       -2.80872997339142        0.13201877614499
C            2.87645545004539       -0.37861006700607        1.16667108589060
N           -1.87510365058030       -0.84316579990908       -0.24086144882240
N            0.78223744000834       -1.37658075057663        0.84483734560241
C           -3.39505267268604        0.71633240442312       -1.09936061205748
C           -5.58180663808773       -1.12836063804937       -0.49435072639566
C           -6.08815790873428        0.09769659606024       -0.06272346023201
C           -6.44221961741215       -2.03771164017503       -1.10894939394484
C           -8.26698705928392       -0.49908872819243       -0.87689086662922
C           -7.77313282901340       -1.72122255511236       -1.30259384108597
C           -7.42152415037186        0.40497438456582       -0.25399471862861
H           -5.43609693715743        0.79249434769375        0.44395155959164
H           -7.80554396155865        1.35382002053043        0.08961132321783
H           -9.30782518792316       -0.25435030032667       -1.02732577979408
H           -8.42780090016593       -2.42969950987303       -1.78874642237577
H           -6.05808666252382       -2.98492776822419       -1.45936557063038
C            4.80669160794019       -3.97369440999496        0.52866582817267
C            4.89271534591451       -1.78191520643920       -0.45055536676803
C            6.90211256726030       -3.07485846867042       -0.21765243382776
C            6.25661216111338       -1.91773848740396       -0.62219367275254
C            6.17168289916162       -4.10145066569227        0.35829741450352
H            4.24863903031329       -4.76988235845312        0.99929250271600
H            6.66928627134606       -5.00497092516378        0.67886242975929
H            7.96865437918688       -3.17751205814175       -0.35075717583230
H            6.81745187965808       -1.11502974975225       -1.07718140759316
H            4.39691762148716       -0.88359886277995       -0.78522284976669
C           -3.51249064154040        1.75815847613274       -1.68503991054524
H           -3.63671856962644        2.68560112627333       -2.15890307581348
C            3.43154538059108        0.60290014634626        1.58113320536805
H            3.93350833573014        1.45243720042433        1.93635163693427
