69
 energy: -118.572833031067 gnorm: 0.000725796936 xtb: 6.5.1 (b24c23e)
Si           0.38498067735308       -1.37313270113131        0.66399421447333
O           -1.19742999136241       -1.40757336608773        0.26997196317794
C           -2.04506207832953       -2.46828956033747       -0.08805966882760
C           -2.87797845268724       -2.10718386271974       -1.29334952592559
H           -1.43743699416517       -3.35338027149132       -0.31478272499818
C           -2.99818594185855       -0.79648806572603       -1.72885466046331
C           -3.57706543519576       -3.10505958054474       -1.96388996462272
C           -3.81541240870904       -0.47982697648010       -2.80000877291883
H           -2.43836237461920       -0.02207723453043       -1.23056448121799
C           -4.39290498608552       -2.79034787888943       -3.03442948440499
H           -3.47213866863885       -4.13308898116195       -1.64821511702546
C           -4.52071879529232       -1.47508252605861       -3.45149099754140
H           -3.90124633584526        0.54843289937547       -3.12139622980980
H           -4.93060959076858       -3.57407966310202       -3.54761887241525
H           -5.16218428325642       -1.23030358776828       -4.28522624602300
C           -2.97956699467042       -2.80071016332974        1.09599682676210
C           -2.21086922859937       -3.19812449344955        2.25526116961875
H           -3.65080050305609       -3.60988811721175        0.79913198425487
H           -3.57309666696830       -1.91469299885630        1.33768031642723
C           -1.53132910841134       -3.50826719314403        3.18969148455929
H           -0.93238401359638       -3.78297074499944        4.00530718031187
Cl           1.20770994872009       -1.73294785744997        2.50644384665383
Cl           0.92791056975184       -3.28605580541404       -0.13530173504785
O            1.29397817466740       -0.69182226328701       -0.62102267919562
O            0.16073915341978        0.32180310473025        1.32333560070629
C            1.47840539367381        1.67981145976910       -0.66047167105731
C            0.10239602486132        1.90141512999724       -0.39701500661485
C           -1.84800804890775        1.37587300504728        0.88317207896911
C            3.40401332189383        0.24581028547566       -0.49731507113051
C            4.27085086935841        1.29444539833944       -0.74774498249319
C            2.34800364802686        2.73436527934995       -1.00723840871574
C            3.69949966363234        2.55655161838361       -1.05507321728778
C           -0.64964238675874        2.89333400611290       -1.06525173783319
C           -1.97223984951444        3.08336570480379       -0.79388096021973
C           -2.62180397731008        2.30115301030570        0.18978369207682
H            1.92288198334366        3.71126095992034       -1.17132079406127
H            4.35097094236086        3.37710993068628       -1.30905253970280
H           -0.16519183656830        3.45945127688703       -1.84377270657590
H           -2.54629182742771        3.80815073661913       -1.34901001542346
C           -4.05485821549887        2.45063209932437        0.44334636887131
C           -2.33308414380111        0.63993004827981        1.98549493474569
N            2.05702256282309        0.43300594964831       -0.53968196940493
N           -0.54582118929236        1.19264655730182        0.58516673910223
C            3.82036300382867       -1.06102187453559       -0.17060411281701
C            5.72656159256822        1.13039445772062       -0.70555288149863
C            6.51533789688797        2.10941814825457       -0.10181318088061
C            6.34995209311004        0.02603515144350       -1.28389005248635
C            8.50059984571620        0.87633233641516       -0.63956303862728
C            7.72610827689814       -0.09607474129015       -1.25026753953733
C            7.89020037821725        1.97899771751396       -0.06504528474420
H            6.04323115168213        2.96227668190634        0.36395339610410
H            8.48815476543247        2.73953193750755        0.41494507778665
H            9.57529558231781        0.77672599864927       -0.61277396660024
H            8.19716366293352       -0.95328974950631       -1.70729236312096
H            5.75419465012593       -0.72566318951578       -1.77766946284593
C           -4.63315761679838        3.71880541673604        0.49579593491420
C           -4.87258037363312        1.33048780362401        0.59155022375740
C           -6.79434594824804        2.74303226726913        0.85798056692748
C           -6.23059685171538        1.47897458478820        0.79562759567054
C           -5.99099010015448        3.86147969246950        0.70704792963427
H           -4.00925649300283        4.59523367273272        0.39534274540264
H           -6.42526330067816        4.84931577291581        0.75438334644171
H           -7.85585085535049        2.85639740296214        1.01912877504436
H           -6.85397803614362        0.60335265464309        0.89979971455998
H           -4.44405612538819        0.34328502801425        0.51289761730996
C            4.06111898604504       -2.19267719944607        0.15363104567775
H            4.28629574612529       -3.18059814361841        0.42568037084997
C           -2.65580525750592        0.02457974944127        2.96494057780124
H           -2.95772527996223       -0.53407114428496        3.80009280552507
