69
 energy: -118.569070824179 gnorm: 0.000572134129 xtb: 6.5.1 (b24c23e)
Si           0.09138407931505        1.30986858140412       -0.39980808265121
O           -1.39019190990241        0.95115329025659        0.15615029091482
C           -2.36648462478075        1.29094599460691        1.10885011710805
C           -3.32646838147005        2.33638737263945        0.59568695393769
H           -2.92623517666110        0.35133807681121        1.25718316952000
C           -2.87506313069082        3.53724565514873        0.06508843040440
C           -4.69367629336830        2.09294100392514        0.65529604274138
C           -3.77999084064336        4.47233739669431       -0.40658260847004
H           -1.81770580989459        3.74085665173611        0.01909890705830
C           -5.59653769495050        3.03253696894061        0.19132981776843
H           -5.05553258316645        1.16284522788092        1.07307030737887
C           -5.14045474748112        4.22438456588204       -0.34540659824672
H           -3.41659997865695        5.40037847060180       -0.82156106397538
H           -6.65685131212921        2.83156568238446        0.24543537535785
H           -5.84434429446033        4.95652046910612       -0.71341190721060
C           -1.75939052893161        1.68553951858180        2.46700651711483
C           -0.94770360878239        0.59695765797622        2.96466376559337
H           -2.57306183356962        1.89866025868441        3.16479248733238
H           -1.14300849792989        2.57764157462074        2.34601806537062
C           -0.29781279099858       -0.35299939585722        3.29321869834238
H            0.29299779335502       -1.15159179992259        3.63015886042415
Cl           0.30001757893698        2.12826854568597       -2.26522109509406
Cl           0.52516222322039        3.13698606674637        0.63038042457679
O            1.37017064402725        0.69322010640543        0.54643689784052
O            0.07079561662547       -0.30194794422958       -1.29785771122966
C            1.76005502275375       -1.66399395570008        0.37286099562520
C            0.39539072624060       -2.02625696272179        0.23677918262407
C           -1.73725109337950       -1.62988385363430       -0.76907365368335
C            3.50758965670508       -0.02960026422308        0.10330844504486
C            4.49745006712212       -0.99080621052692        0.18889660741295
C            2.76621601199542       -2.63727530022341        0.55029428513359
C            4.09041464297804       -2.32222736812237        0.46916431875202
C           -0.16555483190000       -3.14114242542253        0.89770472093787
C           -1.48208351122141       -3.46241752874372        0.75070603873438
C           -2.32028311037346       -2.69534324872362       -0.09112711896931
H            2.46161623423840       -3.66197443787014        0.69023852129686
H            4.84331113947109       -3.08283732138698        0.59898242861407
H            0.45921714301876       -3.70120500033154        1.57413100921583
H           -1.90738822374697       -4.28419234843572        1.30464188383014
C           -3.74150503724945       -3.01773163242113       -0.22395182268811
C           -2.42975770244186       -0.84029613007037       -1.71309183382234
N            2.19647597183891       -0.35762146633649        0.27569993358297
N           -0.43269062840238       -1.33189213001710       -0.60651432364667
C            3.74795875740592        1.33274471675008       -0.17460210492389
C            5.91664512674776       -0.67248913447023        0.01030897142187
C            6.73334343906864       -1.53555533327303       -0.72029230448324
C            6.48335127990216        0.46404283611531        0.58490544033252
C            8.63065671123070       -0.12699126860857       -0.31102682905974
C            7.82964181011976        0.73107838129386        0.42385603889536
C            8.07744140782068       -1.26083874673756       -0.88272391275335
H            6.30393062128791       -2.41177512319994       -1.18406036844688
H            8.69631234531082       -1.93341394820745       -1.45808786806624
H            9.68182114132120        0.08516792524678       -0.43601918305345
H            8.25695683826010        1.61235772535553        0.87838217096584
H            5.86994912915371        1.12604506306030        1.17594783183312
C           -4.15328604894006       -4.34946046865054       -0.29196420135851
C           -4.71049421934246       -2.01450770391827       -0.24865668405564
C           -6.44834346220041       -3.66246704152941       -0.41243513797720
C           -6.05061310881985       -2.33740895860254       -0.34037235549248
C           -5.49420957924574       -4.66648860542065       -0.39026456771668
H           -3.41439468575300       -5.13765929991820       -0.29489652923180
H           -5.79700096794573       -5.70150999311568       -0.45110813628536
H           -7.49623810051094       -3.91195885584745       -0.48479794810314
H           -6.78965123591068       -1.55001695066609       -0.35170844872657
H           -4.40986754236896       -0.98052032646413       -0.17986358108762
C            3.83125795534344        2.50172427663235       -0.44036607435010
H            3.92827862667028        3.52218403565140       -0.66438252719019
C           -2.94487379825174       -0.14119075131541       -2.54260996096261
H           -3.41528481500200        0.47021413805205       -3.25348741002621
