75
 energy: -124.908217657819 gnorm: 0.000813491546 xtb: 6.5.1 (b24c23e)
Si          -0.35807882108803       -1.51119321843367       -0.53820594036863
O            1.24299698977450       -1.52308571751996       -0.23260767074071
C            2.11384860597647       -2.56135644681355        0.13494248128945
C            3.01540987831321       -2.13242617400887        1.26704399521890
H            1.52275681044001       -3.43076538568486        0.45030229346899
C            3.07271584089674       -0.81430016015816        1.69265267567896
C            3.83256297099253       -3.07302309128297        1.88550531442907
C            3.94825399954851       -0.43173624958724        2.69384133471382
H            2.41731103236864       -0.08743083255068        1.24240534766693
C            4.70508434823708       -2.69289378108168        2.88787828284966
H            3.77533496922776       -4.10961354150266        1.58612311035576
C            4.77353469748933       -1.36829587357522        3.28880535928105
H            3.98523672221757        0.60235374852671        3.00563843220882
H            5.33432969781729       -3.43291250697661        3.36043063901789
H            5.46083350163244       -1.07186684578659        4.06747915591403
C            2.97023838432106       -2.96417099798896       -1.08575635583258
C            2.12755064883470       -3.42288872421812       -2.16839731152392
H            3.65892053131325       -3.75862101403629       -0.78979185506353
H            3.54748571993310       -2.09573648986059       -1.41546348697748
C            1.39161460793545       -3.78238134268612       -3.04014655136260
H            0.74124642155814       -4.09727476457919       -3.79993156588675
Cl          -1.33239796988007       -2.01668725962638       -2.27211730670047
Cl          -0.83143091807116       -3.36401727566734        0.44869746088081
O           -1.17522635920573       -0.70042408887475        0.73912756145415
O           -0.16477220476706        0.11363106449424       -1.37457268231694
C           -1.51265324653988        1.62061522173044        0.38215459616086
C           -0.09344098423618        1.79031790004951        0.24632091986889
C            1.85681965641933        1.18183940352345       -1.00837009026586
C           -3.35148418334450        0.05861987173357        0.47758744212061
C           -4.27782078753594        1.08483177274955        0.41933125922969
C           -2.43778259499174        2.67721761702809        0.28934146837060
C           -3.78793383636630        2.40575822609444        0.32728634037786
C            0.68711433391089        2.68329895264323        1.01195352242272
C            2.02500753146839        2.82159738511806        0.72822080574131
C            2.64295674126097        2.08852493608500       -0.30725306375446
H           -4.49420148088711        3.21664772239568        0.24321775797936
H            2.63635563581735        3.46468424824074        1.34256354904489
C            4.07570609719930        2.23751231054636       -0.56691093733056
C            2.32640283455558        0.42185374049444       -2.09978400328922
N           -2.02333315651603        0.34347890119712        0.52089777187597
N            0.55023661651028        1.03859685200497       -0.71062922353480
C           -3.69772629139812       -1.30623030900170        0.46571424431382
C           -5.71978751878227        0.82046082850951        0.41366612686578
C           -6.55508801856951        1.51265539631365       -0.46221163987491
C           -6.28394542511486       -0.09888165683635        1.29656536311750
C           -8.46881840046971        0.36567979226768        0.41780162375810
C           -7.64776519605409       -0.32117294852608        1.29686471835649
C           -7.91731663363008        1.28207229983420       -0.46224012817245
H           -6.12860484308753        2.21344373673803       -1.16496349591528
H           -8.55172330329689        1.81791760622342       -1.15295199090972
H           -9.53381805069786        0.18820191991841        0.41856311933141
H           -8.07294822611319       -1.03241177103499        1.98927379704463
H           -5.65167601931981       -0.62527999692013        1.99494672401094
C            4.65425332976388        3.50619396607826       -0.59093565435106
C            4.89158262982172        1.12079138144395       -0.74319686047179
C            6.81296007431352        2.53856871497279       -0.98509960996697
C            6.24885188698564        1.27360460152551       -0.94909333267872
C            6.01111432704470        3.65370281311053       -0.80469692641771
H            4.03017183499101        4.37921505789258       -0.46363095986987
H            6.44593208485455        4.64220070719010       -0.83005388635326
H            7.87389916619354        2.65515704792765       -1.14781377469244
H            6.87182422770401        0.40052546891550       -1.07490757478155
H            4.46180224874192        0.13301062826255       -0.68374111089793
C           -3.90756384089769       -2.48873765860144        0.41997922521448
H           -4.08843258654210       -3.52135539529167        0.38434732717519
C            2.63265411776422       -0.21257433278958       -3.07255548311170
H            2.92394808368616       -0.78586059759163       -3.90146861364553
C           -1.99934109725916        4.08756334598244        0.03144406840968
H           -2.08381198782538        4.68791162807201        0.93584168292117
H           -0.97481132932170        4.13054358468151       -0.32458735800026
H           -2.64785572758961        4.53411179709911       -0.71956594098167
C            0.11618928130757        3.38072150571708        2.20939911486103
H            0.76350193082624        3.20432938035340        3.06709915803493
H            0.07149173479224        4.45673090832497        2.04971296097718
H           -0.87796774536339        3.01455445708584        2.44581325402890
