75
 energy: -124.908320500198 gnorm: 0.000479230588 xtb: 6.5.1 (b24c23e)
Si          -0.27715277701467        1.27025146575990        0.79101347557602
O            0.74280022723411        1.83463320101344       -0.32999403071173
C            1.61190470799910        2.93456980499288       -0.35476879552312
C            2.92870877912166        2.50601446723939       -0.95048485092218
H            1.75889125377737        3.30769655753724        0.66639552536999
C            2.95857382578521        1.53108119739317       -1.93904878471566
C            4.11692689565686        3.09626407291894       -0.54210281369381
C            4.15964245789263        1.15326257185849       -2.51262289251034
H            2.03177244204889        1.06750421676337       -2.24155490143841
C            5.31749306150233        2.72119671962963       -1.11938132751668
H            4.09772580169433        3.85142675851264        0.23045270977485
C            5.34137366613552        1.75113128900201       -2.10730538785482
H            4.17534894289494        0.39020303016261       -3.27749894612870
H            6.23762121264230        3.18604323044072       -0.79634870865334
H            6.27816630685389        1.45781301082007       -2.55803875232874
C            0.98322366049600        4.05014304219877       -1.21555565730810
C           -0.25228456939149        4.51047889922967       -0.62019316580706
H            1.69176628663116        4.87787242275439       -1.30133448933284
H            0.78040041720166        3.64606275189426       -2.21098692845845
C           -1.27662573580720        4.84237100291932       -0.09893195929735
H           -2.16968180071503        5.14069091106891        0.36275715016011
Cl           0.55478894641336        2.31502145125135        2.48973833275793
Cl          -2.19951037149019        1.81353657576906        1.35194109262153
O           -0.92585449353129        0.31648884985173       -0.64457211160850
O            0.15751308373347       -0.21387169656924        1.53671080919137
C           -1.49063255376251       -1.83326879154053        0.06677405826587
C           -0.08097748586522       -2.10197751669695        0.13407411972733
C            2.08847238349150       -1.23596200201924        0.74836661968050
C           -3.16561534689109       -0.25457666115573       -0.60902975247748
C           -4.18721251393523       -1.14051456535204       -0.29150446450045
C           -2.50503178746529       -2.74234694204623        0.43020312823137
C           -3.82237984528732       -2.38602469304855        0.25764394497955
C            0.55008784160815       -3.18661839621488       -0.50315284909573
C            1.92385314932808       -3.28469594180747       -0.47734914896333
C            2.73064183465019       -2.29992571490161        0.13816741501501
H           -4.60156674692948       -3.05543003235853        0.58814501521970
H            2.40686234293155       -4.08904337697615       -1.00970179885425
C            4.19054478421477       -2.41110886993601        0.11268429316399
C            2.75993747595464       -0.20175559294058        1.42923148637324
N           -1.87829196505222       -0.59601460120711       -0.39558992091709
N            0.73313927090880       -1.19264880270291        0.78208457222548
C           -3.38336662752552        0.98098483569346       -1.25615340223015
C           -5.59543903919999       -0.78067729515978       -0.46400551766857
C           -6.05469289407916        0.48317637537039       -0.09418282908425
C           -6.50470555598407       -1.71300772973214       -0.96213211763903
C           -8.28635248262127       -0.12318296092338       -0.74178521561977
C           -7.83889907005157       -1.38295385545720       -1.10436185320721
C           -7.39124129069657        0.80454952082763       -0.23363720857517
H           -5.36306671984536        1.19642862176822        0.32692032075797
H           -7.73872418777963        1.78318175162660        0.06213495017371
H           -9.32991181460428        0.13218415928347       -0.85058125708573
H           -8.53282547078138       -2.11060824892994       -1.49937632145586
H           -6.15706156514025       -2.69197907311289       -1.25994706998606
C            4.79533966351883       -3.65189698584726        0.31688324853715
C            4.99867766648001       -1.30075487486235       -0.12666955680085
C            6.96624153966281       -2.66390739433607        0.06302899874335
C            6.37400411183533       -1.43027648343880       -0.15158871013693
C            6.17117317043557       -3.77412239333831        0.29676972332013
H            4.18223475593891       -4.51811671408433        0.51960602805319
H            6.62617966275318       -4.73899846539358        0.46673649156446
H            8.04147201698501       -2.76154348951105        0.04718805455718
H            6.98479938379386       -0.56052452209822       -0.34241842452242
H            4.54673877300418       -0.34037389467012       -0.31578779195564
C           -3.49722101718864        1.99869164545659       -1.88335625021801
H           -3.62177392462766        2.90699489041440       -2.39256081447114
C            3.25010766069586        0.70383104690359        2.04856571494391
H            3.68685656730850        1.49202627535232        2.58500937092353
C           -0.22568921813852       -4.17549927751747       -1.31998092999816
H           -0.32697875169031       -5.11934255690658       -0.78666479296021
H           -1.21555435302170       -3.80242977333412       -1.56385324254323
H            0.30947169107189       -4.37786399056541       -2.24556696960306
C           -2.17864391039364       -4.03305033254122        1.11856381813956
H           -2.79391102659355       -4.12702717801702        2.01160501942282
H           -2.40150571613303       -4.88391975956569        0.47674709487611
H           -1.13408209305218       -4.07281417685766        1.41146613203687
