75
 energy: -124.898864484052 gnorm: 0.000827738608 xtb: 6.5.1 (b24c23e)
Si          -0.11045992929677        0.98571669281573        0.37427329943659
O           -1.14484485129148        2.14525561366821       -0.16017882049814
C           -1.09988736360440        3.54478519772000       -0.11555065893607
C           -2.38382478086187        4.06553050208519       -0.71198881356287
H           -0.23925984203427        3.89025890289513       -0.70827817480586
C           -3.59849499491270        3.64448796973737       -0.18449098404195
C           -2.37729145139453        4.96133153321697       -1.77054692031804
C           -4.78860661260838        4.10831413790469       -0.71501028745290
H           -3.59570238790587        2.94394650706657        0.63747656751090
C           -3.56917548129862        5.43030885522375       -2.29707607778819
H           -1.43536693969021        5.29171085679805       -2.18445009253238
C           -4.77649700286208        5.00363174777501       -1.77227917773474
H           -5.73099626316251        3.77706203875399       -0.30079786299965
H           -3.55455880939281        6.12821543092929       -3.12164331586918
H           -5.70610262809984        5.36687055453673       -2.18593101648034
C           -0.95328962282524        4.07790269575093        1.32731210179684
C            0.41011496498706        3.97033771081601        1.79200075659405
H           -1.26239579011166        5.12693056560057        1.34639538200693
H           -1.60876172215098        3.49804663874011        1.98073364964195
C            1.55615840493316        3.87623122735392        2.12194633153426
H            2.56012385416466        3.79740800281318        2.41078827569927
Cl          -1.11178510473813        0.73247469393293        2.19595182550277
Cl           1.60001767524619        1.85511268933621       -0.52397225642222
O           -0.59114252270915       -0.12583769507169       -0.82785587216584
O            0.96342263158518       -0.29874842468940        1.15316611344539
C            0.12233440316592       -2.33855883918182       -0.36781587152420
C            1.49065995872341       -1.89534774653469       -0.45938170265291
C            3.16842182983650       -0.45141177596562        0.46184626847486
C           -2.21042083353206       -1.71462966373418       -0.34039353167671
C           -2.59344251879837       -3.01472844756753       -0.06619273650964
C           -0.24461713274246       -3.66293905902267       -0.08069699160184
C           -1.57739127408614       -3.98527448126394        0.07084548947043
C            2.44655825131226       -2.43420712646115       -1.34032339662707
C            3.73860524280811       -1.95839537327944       -1.30636359879590
C            4.13689171029925       -0.96608795999161       -0.38940076155554
H           -1.85473667805938       -4.99689987104319        0.32157689656605
H            4.45759505975758       -2.32043100106874       -2.02493923569749
C            5.50948272182001       -0.45801450040488       -0.37470831054325
C            3.45857044969731        0.44274519340593        1.51383109378290
N           -0.89541969549122       -1.41185825116148       -0.50343222803875
N            1.89608051844699       -0.89230036341283        0.38772918875016
C           -3.11808066259389       -0.64643486975973       -0.47309218660900
C           -4.00196079823344       -3.38215238961172        0.11533633077968
C           -4.37526495509779       -4.19017069168495        1.18817976279258
C           -4.98043425678479       -2.95837307079197       -0.78159874241001
C           -6.66290913939600       -4.12589992090717        0.47090083095661
C           -6.29941504211597       -3.33046233701671       -0.60317667425294
C           -5.69643179289241       -4.55319283831550        1.36635525738413
H           -3.62789412082225       -4.50948032748067        1.89962694269498
H           -5.97414763448237       -5.17047371684906        2.20805052274879
H           -7.69466985940748       -4.41252511541795        0.60932959530729
H           -7.04795065517396       -3.00026754231251       -1.30821740676984
H           -4.70005865047102       -2.35134856664678       -1.62863881335010
C            6.59009963151898       -1.33115288472416       -0.48893592322039
C            5.75126123194211        0.91271212646031       -0.28625234498441
C            8.11665966385380        0.51640336026284       -0.39891097116902
C            7.04708105740592        1.39175111786276       -0.29864878105676
C            7.88388048550380       -0.84563274064509       -0.49560047616408
H            6.41313632297637       -2.39552819400936       -0.54928907260689
H            8.71442689432362       -1.53174191851452       -0.57626957970224
H            9.12827371935116        0.89419635852015       -0.40706291589999
H            7.22454117616110        2.45516199342910       -0.23660318789279
H            4.91674384965646        1.59533705206873       -0.23875454637479
C           -3.85120642523095        0.29296245223545       -0.62625851238023
H           -4.49820764202141        1.10772172950054       -0.75810915046655
C            3.66530349570540        1.10625484249544        2.49351527281278
H            3.86717229647333        1.70632285502167        3.32993678798584
C            0.78294990934319       -4.72338219517683        0.17751887957058
H            0.83385525856630       -5.41689851398460       -0.66048747104149
H            1.76769985350460       -4.29757299960045        0.34192577109308
H            0.49833717849030       -5.29442050165968        1.05896902488684
C            2.05742377209367       -3.42372358344639       -2.39650716548664
H            2.44014142893139       -3.09008801588312       -3.35933107512552
H            2.49323928070710       -4.40015274553788       -2.19064592805131
H            0.97889368508850       -3.52582558690019       -2.46753959739204
