75
 energy: -124.823477947972 gnorm: 0.000986786446 xtb: 6.5.1 (b24c23e)
Si           0.45951267747744        1.79225121071037       -0.41958507276758
O           -0.97895085551218        1.34887261513024        0.56484452193447
C           -2.22465161447706        1.52943434801260        0.32711295321879
C           -3.22893815355228        1.09688614046470        1.22854714375274
H           -2.51164475656881        2.12935016356168       -0.53269650954853
C           -2.89442380041404        0.40497725177609        2.41045607151634
C           -4.58647717674330        1.36115626601868        0.96304904213800
C           -3.87655448967167        0.02935314800617        3.29754465358745
H           -1.85171377929822        0.20931109038873        2.60949055810901
C           -5.55739680335370        0.97619448920779        1.85784963333230
H           -4.84880711824977        1.87578026046678        0.05081195565438
C           -5.21082893871694        0.31557588982700        3.03148053524467
H           -3.61090046540726       -0.48594764658880        4.20990253876396
H           -6.59570775333750        1.19054666391760        1.65101005875009
H           -5.97718499395352        0.02525605122928        3.73456163143929
C           -1.75684766177708        4.96788063793713       -1.18322448479101
C           -1.06819405401078        3.91984772774490       -1.51387517858114
H           -2.81927214275221        4.92423941166147       -1.00067402578090
H           -1.28898009814305        5.93260595316551       -1.07935951348222
C           -0.36397086301281        2.86849366667937       -1.77170310644295
H           -0.19681422624332        2.56176089672302       -2.79328159264350
Cl           2.41548390206076        1.74875326437168       -1.44859472100900
Cl           0.94979039235187        3.30030625179234        0.97337917814003
O            1.22259801030418        0.54486274002933        0.91030773481983
O            0.12704161613786        0.22549059916426       -1.43831344728897
C            1.49630716605592       -1.51039717632297       -0.01756164157192
C            0.02165426390026       -1.58654804048349       -0.02947240687557
C           -1.95877804939609       -0.72524586430252       -1.05134817709459
C            3.35845451575558       -0.18913822875961        0.59169614240438
C            4.23660826572388       -1.15855297267295        0.09989528551810
C            2.32316815348354       -2.49917788728574       -0.53826357730207
C            3.69743505257469       -2.29802944594400       -0.48325406109562
C           -0.71014887933629       -2.49731376435119        0.70474728592088
C           -2.10586252096718       -2.49879306126112        0.55478359906601
C           -2.73530888597632       -1.66172643344483       -0.34903894646179
H            4.35905730252730       -3.04720589339040       -0.89126067806234
H           -2.68816284576520       -3.20906087852285        1.11987487016373
C           -4.18798189108175       -1.76001001222307       -0.55488697890960
C           -2.43512993722270        0.12125884452129       -2.06520916798221
N            2.02792252621786       -0.38644358025552        0.49946407157184
N           -0.60725119372346       -0.69324573320109       -0.82751461433251
C            3.76097901499866        1.02447233590059        1.18061485485302
C            5.69077068772421       -0.96304111073117        0.17671989335263
C            6.48124349809086       -1.19755771188370       -0.94534275838659
C            6.29620559600018       -0.56081822617737        1.36411542230031
C            8.44751448612265       -0.62450141440461        0.30267140265955
C            7.66763357194147       -0.39784980704180        1.42445933371090
C            7.85081690107777       -1.02190563587479       -0.88232159215820
H            6.01392097724388       -1.48525931843278       -1.87521841402958
H            8.45423573432801       -1.19322650220622       -1.76123922393408
H            9.51761412717726       -0.48935678552135        0.35105626128100
H            8.12922118565654       -0.09091399505293        2.35100263282623
H            5.69242294275638       -0.39156824826217        2.24254842335393
C           -4.74620403638218       -1.71304100812115       -1.82981111920915
C           -5.02841416016451       -1.94411555475506        0.54078652649535
C           -6.94391615991860       -1.97983617066732       -0.90093793877365
C           -6.39536553010767       -2.04467666796501        0.36865884645560
C           -6.11415253826171       -1.82234367778705       -1.99810678639427
H           -4.10642654496326       -1.61061462446869       -2.69203163543039
H           -6.53370787202212       -1.78597564417355       -2.99244250997423
H           -8.01242740977762       -2.05678581735002       -1.03548187337340
H           -7.03402148194557       -2.17235149551052        1.22982624572160
H           -4.60992070268674       -1.97609570421085        1.53462328682441
C            4.00776149642427        2.07750823248587        1.70340778274415
H            4.22328011805685        3.01204520403224        2.12805326418131
C           -2.74540279134813        0.83188584811018       -2.98706071476306
H           -3.05241726931386        1.47182191505892       -3.75897917914542
C            1.76883962246029       -3.73956085878904       -1.16525319279201
H            1.87775987106125       -4.58582349325040       -0.48720493460882
H            0.71648540670362       -3.62585353918183       -1.40942998814702
H            2.31900486012385       -3.97008567926868       -2.07470187803822
C           -0.06739709566008       -3.45866925241236        1.65444828629227
H           -0.56283309992095       -3.40142334463357        2.62213817085905
H           -0.17381352254139       -4.48020290142941        1.28968717547205
H            0.98836522115567       -3.24272530952648        1.79088236674997
