75
 energy: -124.904343343905 gnorm: 0.000676037639 xtb: 6.5.1 (b24c23e)
Si           0.08913094437502        1.41814895725896       -0.24158644373034
O           -1.43411888379056        1.05904208873708        0.18380701705308
C           -2.49238547373152        1.39590099712186        1.04432192996982
C           -3.38423555142543        2.46479647295845        0.46100139292770
H           -3.07427764909080        0.46159966073025        1.12203490856046
C           -2.86126954495758        3.65026202069071       -0.03714551400422
C           -4.75925878861964        2.26391338620769        0.42909697624874
C           -3.70261856040581        4.61296251188214       -0.56714468175286
H           -1.79750627354510        3.82129356933451       -0.01050111948701
C           -5.59922319521521        3.23116394912734       -0.09280117823453
H           -5.17673721356772        1.34594231915813        0.82092853493420
C           -5.07136952594946        4.40781361377398       -0.59632799376343
H           -3.28330078939794        5.52882054085571       -0.95561501711127
H           -6.66673562614061        3.06396035440737       -0.10920953529957
H           -5.72604354322985        5.16183937095070       -1.00844683021223
C           -2.02608650830916        1.76848564420727        2.46325214815101
C           -1.25252258037015        0.68459151398992        3.02638923609124
H           -2.90958565028320        1.96022462940624        3.07770062761966
H           -1.41228398498704        2.66948902358871        2.42129479997658
C           -0.62188219399533       -0.25151041275628        3.42396050722005
H           -0.04506200646399       -1.03666166203347        3.81191457575907
Cl           0.50787941917431        2.35570840941832       -2.01848138216655
Cl           0.46171350529894        3.17134764311822        0.93759137970234
O            1.24230274710133        0.65723392370289        0.77117075341495
O            0.09060803717548       -0.11583187194128       -1.27927458373119
C            1.75493586540015       -1.59937942040700        0.20114047009978
C            0.35499265279832       -1.91682807236730        0.17553334611282
C           -1.75301546060759       -1.43566396681351       -0.85987437096865
C            3.41665425286296        0.15607239170870        0.17640278938730
C            4.43487665404989       -0.75191770462688       -0.04751400133281
C            2.77425625819521       -2.53770801828700       -0.04934225087687
C            4.08273574888373       -2.11645549544391       -0.14599945684800
C           -0.26314563325892       -2.92880026241153        0.94078634070091
C           -1.59927865288669       -3.19079908298064        0.75582787413381
C           -2.37734293774568       -2.47328262207122       -0.17687922675087
H            4.85784296606762       -2.83845888308826       -0.34939088912876
H           -2.08491908851729       -3.92904461067517        1.37549674148259
C           -3.79287363528324       -2.79535584213378       -0.36431920451162
C           -2.39545033823493       -0.62521453404547       -1.82074711113924
N            2.14198852919806       -0.28125684651109        0.36367710987170
N           -0.44479232754981       -1.18184111876707       -0.66646074283153
C            3.59723378147739        1.55317334923830        0.19467145981848
C            5.82627015583648       -0.32299185451883       -0.21667348335901
C            6.61755268531005       -0.88819797579565       -1.21597742942162
C            6.39014178767908        0.63130888751772        0.62880084826228
C            8.48527096342146        0.45038172137177       -0.52828709906171
C            7.70920779245096        1.01182128101447        0.47231808410819
C            7.93424614157815       -0.49980264724257       -1.37211375129096
H            6.18831764588056       -1.61467098007586       -1.89053533656538
H            8.53304683085517       -0.93860002851911       -2.15673747981130
H            9.51502579051850        0.75121308211953       -0.64991358057694
H            8.13507261895436        1.74853425793166        1.13720026128146
H            5.79567347437599        1.06031771808290        1.42075226464485
C           -4.20382774293842       -4.12921624507759       -0.38288652696086
C           -4.75755171018154       -1.79627939642863       -0.49453245747231
C           -6.48702194139503       -3.45257923434010       -0.66926269632774
C           -6.09097970959147       -2.12529579939337       -0.64410580705864
C           -5.53753335678993       -4.45284752137912       -0.53916783340825
H           -3.46716627034054       -4.91532105571974       -0.30001305690219
H           -5.83847178752763       -5.49006577242481       -0.56122343559093
H           -7.52959219665728       -3.70652336898011       -0.78830039606608
H           -6.82652123572264       -1.34007591384614       -0.73804557037333
H           -4.46033211746379       -0.75972127418871       -0.46275024130780
C            3.64962374412857        2.75389891795990        0.18847054419567
H            3.70688829041237        3.80145143968364        0.18847635823251
C           -2.85808303977174        0.09045555766807       -2.66684234852529
H           -3.28814474359086        0.71733638045997       -3.38953120757724
C            0.47616850949095       -3.63245375773276        2.03870689086791
H            0.64710496815590       -4.67824330302249        1.78803552158365
H            1.43160249319056       -3.15687270340192        2.24002112515297
H           -0.12744060071756       -3.61212249471479        2.94478942953492
C            2.46717454352946       -3.97742893413648       -0.33320337176005
H            3.09032814635954       -4.32396270089235       -1.15507863900924
H            2.69452125594674       -4.59660158417182        0.53317490741128
H            1.42530587012038       -4.11925861202400       -0.60314887219719
