75
 energy: -124.823880302640 gnorm: 0.000538076781 xtb: 6.5.1 (b24c23e)
Si           0.08439855956179        1.13015101760616        0.89276007587575
O           -1.08933033177812        2.33035609016189        0.36522654141838
C           -1.39599377423574        2.69824291339954       -0.81142539363976
C           -2.57364716739464        3.43123699371385       -1.09304933147212
H           -0.72867107849316        2.43823848290617       -1.63086089638585
C           -3.46540193641305        3.79112095805160       -0.06054907218426
C           -2.88160167049691        3.81117075523320       -2.41480585631614
C           -4.61296529328893        4.49289763092462       -0.34670141677653
H           -3.21969986554539        3.49187626677253        0.94649474706900
C           -4.03438580462828        4.51329880064035       -2.68502513767503
H           -2.20077744501721        3.54178647987542       -3.20838212129511
C           -4.90584521838582        4.85735387166924       -1.65722978368882
H           -5.29190656310004        4.76482512824743        0.44851638456541
H           -4.26565728979324        4.80092941289508       -3.70053160263626
H           -5.80782641022962        5.40888382228508       -1.87657962573483
C           -3.63555280180215        1.17264728946899        2.35482772742005
C           -2.44513992357916        0.68363451926556        2.18670246727410
H           -4.46785608082825        0.88398411712502        1.73134730583271
H           -3.83982847211525        1.89021413434568        3.13313890358000
C           -1.24975546613682        0.24363412612685        1.97934169927921
H           -0.91004846244097       -0.64103256989692        2.50119464830924
Cl           1.60805285687162        1.91799760493628       -0.50794854554525
Cl           0.76227937348427        2.36488321115716        2.48502148990410
O            1.19977628872519       -0.32843545133977        1.35186189518714
O           -0.37053438203774        0.04928024613631       -0.67574870641914
C            1.68206211519033       -1.65884966949534       -0.45530380367959
C            0.30480628132969       -2.13846928390968       -0.34456554475298
C           -2.00120562447113       -1.53625671081181       -0.34570911500203
C            3.34319872868048       -0.25928457642115        0.51001484787192
C            4.27728279522246       -0.66222629252180       -0.44334780635075
C            2.57386373304731       -2.06554587957207       -1.44829182561136
C            3.85993250568792       -1.55180231457374       -1.43625373690881
C           -0.02954433466100       -3.46868500626216       -0.09493806153532
C           -1.36567041825677       -3.81082679406613        0.04771106152459
C           -2.37447516394357       -2.84695577873589       -0.07083204913015
H            4.55600788298879       -1.84558230239193       -2.20694630659590
H           -1.63402208303347       -4.82665553304442        0.29170933879634
C           -3.78541525168775       -3.20235231989001        0.11530777564086
C           -2.92800027177355       -0.51134461439520       -0.62232122663323
N            2.08975353022889       -0.75504653046543        0.47541815124730
N           -0.69111623534947       -1.20839745113405       -0.45933131582143
C            3.61425138649778        0.67634155747421        1.52610418616246
C            5.64843954564077       -0.13974401540651       -0.42733263406754
C            6.23649733981947        0.30212670736339       -1.61066360825409
C            6.38567007377601       -0.09258622544861        0.75370558517792
C            8.25650330655541        0.83273344015802       -0.43131167736931
C            7.68146804899289        0.38824241241384        0.74772864343934
C            7.52939868736005        0.79005484180001       -1.60938545928807
H            5.66373637336538        0.29231452018396       -2.52602607366526
H            7.97093811093401        1.14158358487107       -2.53020471491259
H            9.26710123673727        1.21303611687283       -0.43204200169462
H            8.24532410767540        0.41619571225371        1.66825206983408
H            5.94628153525336       -0.44813292615236        1.67321873734371
C           -4.31402800120726       -4.33944626834041       -0.49086413871636
C           -4.60395522545149       -2.42149980421613        0.92867032634483
C           -6.45155520912560       -3.89281020918118        0.50064143930679
C           -5.92775870727444       -2.76913679558096        1.11905755818006
C           -5.64120565906420       -4.67707006433423       -0.30340226587056
H           -3.68696056951576       -4.94524654572104       -1.12909708780950
H           -6.04495331669253       -5.55483234345046       -0.78609515577489
H           -7.48737479808948       -4.15956788375116        0.64794052681997
H           -6.55317784314974       -2.16278254753221        1.75695746024104
H           -4.18857716066816       -1.55985656546849        1.42808690062319
C            3.74212681715980        1.47858764196414        2.41098514421839
H            3.84965847740901        2.19848246207251        3.16606271412815
C           -3.67594577097293        0.36903707464544       -0.95308165594461
H           -4.34343056187498        1.13696953640479       -1.20844907253671
C            1.02045935853315       -4.51958522297768        0.09506400424043
H            1.06708287893229       -5.16909749488171       -0.77830638050565
H            2.00106926047935       -4.08209067568111        0.25713608331895
H            0.76637924391220       -5.13903040454182        0.95269225761799
C            2.15358838906624       -2.98904205077497       -2.54964203544786
H            2.49845859164698       -2.59721911024861       -3.50423176575207
H            2.60289222009635       -3.97226859734971       -2.41465070395704
H            1.07379300320520       -3.09889365141280       -2.58692698441170
