75
 energy: -124.907449419154 gnorm: 0.000927596085 xtb: 6.5.1 (b24c23e)
Si          -0.08202417867489        1.03508269280808        0.73771567769606
O            0.77077709058379        1.72773066139713       -0.45246095412820
C            1.36340591998072        3.00011129335878       -0.50277545503372
C            0.31967153408354        4.08758279951806       -0.52573908111535
H            2.00458697247726        3.12950805189645        0.37842029719932
C           -0.90247983155642        3.86593773176161       -1.14502269017944
C            0.57146173366898        5.31621737487725        0.06831618365019
C           -1.86398526585942        4.86006299977788       -1.16141100871769
H           -1.09969657292604        2.90209484058409       -1.59046106015315
C           -0.38865259374973        6.31163004379205        0.04388695908566
H            1.51682390781380        5.48501645615390        0.56271419650848
C           -1.60860198472351        6.08511300264536       -0.57018228865929
H           -2.81809279279896        4.68030948429207       -1.63473243949100
H           -0.18839147490945        7.26306296574409        0.51430801002536
H           -2.36131003657502        6.85989820486251       -0.58119663991937
C            2.22338021931126        3.05350480968636       -1.77956532691620
C            3.31715715632402        2.10925417456117       -1.70626120848780
H            2.61510909941323        4.06651877769114       -1.90230255912313
H            1.58726440588822        2.81020003377759       -2.63404260198055
C            4.20885443324159        1.31739903085228       -1.60702580401603
H            4.99777515674688        0.63044677695732       -1.52736637084999
Cl          -2.02923538137530        1.36697734212188        1.39416228309354
Cl           0.70809639291671        2.22084297517225        2.36549754037258
O           -0.69826160662296       -0.01818240050592       -0.63742032776331
O            0.59145670545688       -0.35686899954704        1.47579640385298
C           -0.90583939063937       -2.21290488231548        0.12753356223781
C            0.53019197301788       -2.27846446517340        0.09674336254688
C            2.59724132019304       -1.13884094110801        0.60143924317626
C           -2.82791719793440       -0.90376032400506       -0.45155423736150
C           -3.68781680984228       -1.92496667497242       -0.06782547281386
C           -1.75072750099325       -3.25516264273244        0.55630148245822
C           -3.11438496852141       -3.09686953119140        0.46540099555269
C            1.25447644501993       -3.25383122049595       -0.60999208655817
C            2.62677289393515       -3.15372289803900       -0.69176493599191
C            3.33000026122677       -2.08760213080635       -0.08885967345767
H           -3.76675430648809       -3.86826456122702        0.84454059144431
H            3.17996867437551       -3.88688126172075       -1.25744231998109
C            4.78395746262323       -1.97610854754789       -0.24061007131272
C            3.16586136268068       -0.00349632706938        1.20997703608421
N           -1.49405766491697       -1.05074221626024       -0.31621497597710
N            1.25099840444132       -1.27365686472492        0.71225725753244
C           -3.27299460072831        0.26864565800372       -1.09986787404067
C           -5.14119181312219       -1.78052695668013       -0.16842093341076
C           -5.76716688695820       -0.59900517691068        0.22727627789611
C           -5.92197369390436       -2.84028379504459       -0.62804996888364
C           -7.90974572004118       -1.53526794244760       -0.32039305086154
C           -7.29557640141404       -2.71449407308912       -0.70849744242138
C           -7.14182518833485       -0.48253007473162        0.15081008831319
H           -5.17196491889552        0.21202798897253        0.61767783081774
H           -7.61816941576416        0.43352644513621        0.46658180189542
H           -8.98364959090493       -1.43952646283246       -0.38096990052287
H           -7.88964866692303       -3.53876321079716       -1.07538705646222
H           -5.44490021855086       -3.75647675048259       -0.94540138601741
C            5.60491694790921       -1.66493819073168        0.84193908811057
C            5.36881784002723       -2.19560874955398       -1.48811442598770
C            7.54470093797805       -1.77753159042913       -0.56908853541081
C            6.73724833503652       -2.09094079673623       -1.65035914090962
C            6.97376497465577       -1.56856632472932        0.67573441389419
H            5.16736378474548       -1.51453143645127        1.81666994138351
H            7.59942651784786       -1.33101343901704        1.52326482027165
H            8.61378405476306       -1.69700223124478       -0.69680905688788
H            7.17541624738507       -2.25037753360136       -2.62483431547317
H            4.74087093745051       -2.41669135796984       -2.33904773924458
C           -3.60683349772148        1.22759279813906       -1.74094411864135
H           -3.92268364440036        2.08138232909096       -2.26146065423382
C            3.58000772327088        0.98365203516027        1.75544639319265
H            3.94759220962919        1.84275999317322        2.23142031811418
C           -1.19461386685714       -4.47741871170191        1.22172963314341
H           -1.34520823898043       -5.35991573591219        0.60203669660930
H           -0.13526176491360       -4.36704788831197        1.43173875955874
H           -1.71975601745163       -4.64329666296563        2.16072938871495
C            0.56475216849102       -4.34021526825908       -1.37856650935217
H            1.05706549282434       -4.47291113137369       -2.33971384048787
H            0.62820155692091       -5.28676090893868       -0.84360792650504
H           -0.48112654937670       -4.10522648157801       -1.55143006869336
