67
 energy: -119.164272751627 gnorm: 0.000360229228 xtb: 6.5.1 (b24c23e)
Si           0.10173545916005        1.81690498637900        0.96691644854252
O            0.93668359773599        1.39489003899453       -0.33163148897126
C            0.81545081223147        1.53415235094179       -1.74393954092648
C            1.87234256947889        0.66236780859828       -2.37396784895792
H           -0.17886067971012        1.17624648958110       -2.03536701964441
C            3.21812150751495        0.90372681230714       -2.12748465719955
C            1.50606646640311       -0.38691019662954       -3.20606552149037
C            4.18766404649668        0.12537494601955       -2.73447227016741
H            3.51102260761128        1.69676111253748       -1.45525871815203
C            2.47850146340224       -1.17258724936070       -3.80071550995343
H            0.45998553076588       -0.59446093139410       -3.36974732265266
C            3.81950231030738       -0.91234872966953       -3.57535795075460
H            5.23234370495537        0.33678890925206       -2.55619149221034
H            2.18698530584476       -1.98824170509350       -4.44549730631091
H            4.57748102381689       -1.51939573893705       -4.04919156175267
C            0.98469118399283        2.99862487391121       -2.17263730774686
C           -0.11861434625890        3.82367682205359       -1.73074064792295
H            1.04921304896526        3.02878242400215       -3.26348355156084
H            1.91530371815333        3.39031256251581       -1.75391127505287
C           -1.03445104729350        4.48902286690645       -1.34321632710184
H           -1.83838115285361        5.07915041468409       -1.01884212599658
Cl           0.81634632792872        3.44053778575143        1.87287825780706
Cl          -1.88193156089594        1.97551548942738        0.64565359142546
O           -1.25541462964892       -1.12570845476515       -1.75144315303620
O            0.33519389147409        0.56097627519287        2.01322969349733
C           -1.22505092048474       -1.22243866843387        0.54030860315215
C            0.21490644606733       -1.32954100628090        0.55426527465262
C            2.22745115116991       -0.82834213891433        1.77298394443548
C           -3.23985023955308       -1.00843764758754       -0.66405893622794
C           -4.00246147211610       -0.96235884667613        0.50441180494911
C           -1.95687547972377       -1.16277004661487        1.72867805663299
C           -3.32539012119860       -1.03661508959202        1.72303205323847
C            0.96923925233871       -2.03146314994143       -0.36274834047830
C            2.34011668992272       -2.17401658579378       -0.20704377643231
C            2.98169126480694       -1.59644377171549        0.89746684252650
H           -1.41798962545587       -1.23497349044551        2.65991470240448
H           -3.87934617431512       -1.01533464783150        2.64706293482013
H            0.46849215379144       -2.49354819228853       -1.19742651497398
H            2.90892977792748       -2.74979338434076       -0.91701824377719
N           -1.88468498695256       -1.13328435135861       -0.65706095808931
N            0.85309325328825       -0.70495997200402        1.62321873508142
C            4.41771173726664       -1.79706037545432        1.12674476890110
C            4.90660635115079       -2.08713393616955        2.39866938717722
C            5.30887165126936       -1.72720137563702        0.05814270892370
C            6.26010610227044       -2.28734772622581        2.59632808087577
H            4.22366399500608       -2.17520991634240        3.23008857078206
C            6.66176998141133       -1.92058811244855        0.26279441282951
H            4.93518494001806       -1.49468701988230       -0.92746399357919
C            7.14156844503017       -2.19999573704827        1.53182667838333
H            6.62703916590587       -2.51346517532236        3.58607946047077
H            7.34480062342063       -1.85318047191141       -0.57106695299928
H            8.19870474304581       -2.35199620774786        1.68997947934224
C           -5.46230916305329       -0.83741220710959        0.45163100377648
C           -6.22200551920490       -1.62259838485701       -0.41287191301420
C           -6.10812436366666        0.06503717688876        1.29504396463897
C           -7.59866545471127       -1.50102898076753       -0.43522482357964
H           -5.73566561453729       -2.34363093562699       -1.05268675508424
C           -7.48398091502271        0.18783300419216        1.26225466012801
H           -5.52223967447505        0.68975595041453        1.95296579967773
C           -8.23268712779798       -0.59493149211819        0.39850702215287
H           -8.17795734166330       -2.11689746760136       -1.10636746700870
H           -7.97430102319195        0.89777560981732        1.91159900327162
H           -9.30778648729997       -0.49907447834901        0.37572512127118
C           -3.82161892565560       -0.84927259197451       -1.94428050001005
C            2.79827118125201       -0.08863264671250        2.81906379371562
N           -4.28343787250561       -0.70396465507865       -2.98277348198968
N            3.25497243665211        0.55097517966980        3.65920139533457
