67
 energy: -119.163470418292 gnorm: 0.000624138168 xtb: 6.5.1 (b24c23e)
Si           0.09834923899325        1.35136455172489       -0.17680502750481
O           -1.38596384750393        0.94259662515177        0.36389906580628
C           -2.25780781422218        1.66969343337276        1.20626617997942
C           -2.76755046091067        2.92389846564417        0.54678455295720
H           -1.71074667097373        1.94108306735903        2.11728450693598
C           -3.11930271523249        2.92406353458903       -0.79542613044364
C           -2.88202186863853        4.09516926556391        1.28335407299322
C           -3.57136787504975        4.08565279338920       -1.39587987501793
H           -3.02433306067623        2.01817048185942       -1.37544988428892
C           -3.34135626238899        5.25299061977201        0.68303377969139
H           -2.59409455721863        4.10156342073755        2.32434891644505
C           -3.68456708345434        5.25118367848418       -0.65849410137954
H           -3.83118371953512        4.07744979990460       -2.44373617854667
H           -3.41997980824397        6.16159992869256        1.26163592336196
H           -4.03284477362507        6.15894465213836       -1.12903642005829
C           -3.41979224443901        0.72761432798482        1.57502570036465
C           -2.92885054423635       -0.39204662920970        2.34704226535439
H           -3.89759938805584        0.37203853081107        0.65807755118014
H           -4.15320297401139        1.28622276798267        2.16135339850370
C           -2.45221311656197       -1.29015504037989        2.97908768128849
H           -2.06283339224415       -2.07626541147086        3.55459074822774
Cl           0.41729921430030        2.20567735335657       -1.98848479940797
Cl           0.44422552765844        3.04013146274095        1.03660653648239
O            1.36925315842550        0.61018810585910        0.69913077714454
O            0.01424606271093       -0.29038152751501       -1.17539763766800
C            1.73413948314018       -1.73758254956496        0.38199958238920
C            0.35855108570847       -2.07762715256861        0.27381969789365
C           -1.77424860691759       -1.64842417063273       -0.68566514890148
C            3.48728233257346       -0.11351544148451        0.12701478436514
C            4.46966380990414       -1.08275527197187        0.15735111685112
C            2.72994018114475       -2.72419975214780        0.48900338680312
C            4.05898441758157       -2.42216662206327        0.38972336048253
C           -0.20299992383383       -3.20067921907779        0.91910941784994
C           -1.52200175108569       -3.51759084498769        0.77935400176971
C           -2.35584639887247       -2.73965538933592       -0.05527286450271
H            2.41710800585464       -3.75121035781992        0.59169633401631
H            4.80711188170422       -3.19405274370891        0.46506318617622
H            0.43170079922342       -3.78063809303183        1.56969534729869
H           -1.94268468160366       -4.36826630112407        1.29130582443331
N            2.17067194752708       -0.42721305216974        0.31625122605856
N           -0.47159074269275       -1.33909973761953       -0.52593898524630
C           -3.77251185175929       -3.06570834627922       -0.23171724803370
C           -4.35738468635672       -3.08455100831134       -1.49710856782952
C           -4.55376744976814       -3.37563304845528        0.88123628536753
C           -5.69609832257064       -3.39657048473158       -1.64125182951093
H           -3.75734164309065       -2.87659247036553       -2.37012907023760
C           -5.89330239256606       -3.67830216381307        0.73100625364808
H           -4.11395333268769       -3.33615956221351        1.86622101162814
C           -6.46836660681573       -3.69032704075797       -0.52951512759232
H           -6.13722289198124       -3.41073097707495       -2.62626903187852
H           -6.49177322202345       -3.90257332496051        1.60127278052368
H           -7.51496833953579       -3.92824223594832       -0.64474128669093
C            5.88742387558908       -0.76309464543493       -0.03545902212225
C            6.47699181746244        0.32461833970533        0.60635826863286
C            6.67301322381713       -1.57576891683794       -0.85253296148324
C            7.81942814365721        0.59737183730652        0.42219128625187
H            5.88885317722886        0.94338218257335        1.26654276324439
C            8.01255721490182       -1.29338782965759       -1.03855336590538
H            6.22167994011444       -2.41266758313190       -1.36547798628927
C            8.58940581998758       -0.20635403238459       -0.40221919257230
H            8.26535546499809        1.44125580189495        0.92597372641933
H            8.60803243676105       -1.92249141201888       -1.68329984299451
H            9.63649481654692        0.01196364204168       -0.54753531404261
C            3.77472710611686        1.24953834323840       -0.12217550351920
C           -2.52034169508012       -0.77912560911139       -1.51786755816289
N            4.01489803407600        2.34580301060232       -0.35273212574523
N           -3.13884150124264       -0.08920002508869       -2.19123021122754
