67
 energy: -119.165007581878 gnorm: 0.000904799105 xtb: 6.5.1 (b24c23e)
Si           0.08757908798607        1.60870511318078        1.28653445998432
O            1.06510705688511        1.33642924115891        0.04564847867287
C            1.67620263701663        2.11112648844133       -0.97705411635806
C            2.43414016103298        1.16853266378188       -1.87832626434129
H            2.37111940970104        2.80776905589464       -0.48958197148340
C            1.76602038302577        0.15058003574137       -2.54814497929048
C            3.80349178660541        1.31817514050456       -2.05310594679626
C            2.46424894216362       -0.70136252973960       -3.38596302464716
H            0.70477802327731        0.00789837432409       -2.41382859592436
C            4.49687936954670        0.46897412146494       -2.89820948652750
H            4.32873440632267        2.10354083916223       -1.52851121119557
C            3.82752179395221       -0.54236174519523       -3.56757975811565
H            1.93422233427817       -1.48717120705012       -3.90240522546500
H            5.56125220325125        0.59663288122652       -3.03095701072049
H            4.36941838726209       -1.20515210071691       -4.22655073209440
C            0.63354894135891        2.91138411270712       -1.77224744778616
C            0.12514850452516        4.02009189333341       -0.99387267682518
H           -0.18671057813246        2.24737508822330       -2.05651967166656
H            1.10638609563198        3.29001073897630       -2.68208451528891
C           -0.25461017623271        4.92145786000288       -0.30419242787213
H           -0.60601110429541        5.72056355500359        0.27697156632672
Cl           0.68369941553294        3.02574532293374        2.55520600579014
Cl          -1.83000901090517        1.89093088925468        0.73357017239600
O           -1.21161567361080       -1.04003282652463       -1.90024895593839
O            0.13791353028445        0.17738103258328        2.10684695693768
C           -1.33007607707744       -1.37384060660846        0.36500097881635
C            0.10513861453144       -1.52565366374548        0.44201702329762
C            2.09129773170630       -1.09736023309756        1.73119181829707
C           -3.25859664266741       -0.98194993234318       -0.93201442448137
C           -4.09275578435498       -1.03603019553273        0.18657390566686
C           -2.13245933287134       -1.41059698033887        1.50640438197826
C           -3.49529367670830       -1.24483231732265        1.43056783249503
C            0.87999972275320       -2.16760843370824       -0.49922259757260
C            2.25161446264118       -2.30549944594322       -0.33309823212565
C            2.87194103027606       -1.77026299759546        0.80219430374175
H           -1.65579259781316       -1.59200041807536        2.45631660172010
H           -4.10567320085260       -1.29989829619881        2.31691012308668
H            0.39960292137725       -2.57461665486596       -1.37365363980026
H            2.83951675765368       -2.82793321554914       -1.06839894072199
N           -1.90950576054821       -1.14119572692691       -0.85465260563581
N            0.71120021437916       -1.00850083001419        1.58441711000133
C            4.32090045058260       -1.90161933610081        0.99918061804610
C            4.85014767141598       -2.27579308711268        2.23183216995080
C            5.18440300461520       -1.66973612582848       -0.06928916745365
C            6.21718694015223       -2.40575786964295        2.39194808611770
H            4.18902764673759       -2.48289353017637        3.05983263114175
C            6.55048035934599       -1.79420067723986        0.09887373011111
H            4.78036847560712       -1.36431967943973       -1.02299368937494
C            7.07059192902592       -2.16245494001327        1.32869851482768
H            6.61695215730850       -2.69860591340387        3.35090670817887
H            7.21130283274920       -1.60286935211042       -0.73359956864157
H            8.13801153410616       -2.26085809827323        1.45782840895812
C           -5.54513291615715       -0.88493725030378        0.05501754688467
C           -6.25170607252314       -1.57138965139958       -0.93034043898814
C           -6.23947700258003       -0.06467475914968        0.94245363575977
C           -7.62340963909986       -1.43304942619771       -1.02760615351418
H           -5.72890542857127       -2.23052806492239       -1.60713615642805
C           -7.60991738065725        0.07565469390832        0.83527685885837
H           -5.69444045640317        0.48426677599083        1.69612456713238
C           -8.30535678146791       -0.60822718168441       -0.14851962904649
H           -8.16134277099066       -1.97217712593295       -1.79264084743651
H           -8.13761783360366        0.72198495630812        1.52077202125238
H           -9.37635373950999       -0.49897025987431       -0.22953332661918
C           -3.75525227917272       -0.68225788111197       -2.22289414936434
C            2.63884122843481       -0.42038531890344        2.82868131227327
N           -4.15185778907325       -0.42176907507719       -3.26583289486138
N            3.07902155080816        0.16940008690039        3.71343395165870
