67
 energy: -119.161737096511 gnorm: 0.000488543932 xtb: 6.5.1 (b24c23e)
Si          -0.43658587059654        1.49699192552277        0.74942812949602
O            1.16649247662918        1.45231308254055        0.49324088523623
C            2.11447716214869        2.47464970230871        0.23648848756121
C            3.13888182952531        1.84416846512933       -0.68041944603137
H            1.60543937369981        3.29271438741112       -0.29094861555007
C            4.39443150919275        1.43063970407734       -0.25642443375089
C            2.76343010231405        1.60982543572602       -1.99949718880182
C            5.26927638260737        0.82888075175218       -1.14551945074910
H            4.70383978138717        1.57623990468481        0.76622995850255
C            3.63246523729893        0.99811111618229       -2.88371053778714
H            1.78037548772171        1.91787536485197       -2.32651316922564
C            4.89457542199865        0.61591632760414       -2.46017328161497
H            6.24812054784009        0.52390703644066       -0.80564601378135
H            3.32860763182679        0.82894524588656       -3.90709531993450
H            5.58377084923659        0.15499254870299       -3.15274219440059
C            2.68282199223166        3.01621812312532        1.55395014955151
C            1.67773761610107        3.76934031958184        2.27427564708420
H            3.53356870246823        3.66468810184158        1.32851577996368
H            3.00835721739509        2.18122894607861        2.18000083269374
C            0.82717618073978        4.37365724471337        2.85895398523241
H            0.07692099921408        4.89888688083225        3.36901174242266
Cl          -1.29642026449405        1.64171249580381        2.57221841741393
Cl          -0.86313204706062        3.39651513881923       -0.03769998415007
O           -1.37743792129869        0.85759782910128       -0.53154759754700
O           -0.17163121115755       -0.39644063024005        1.24880377211752
C           -1.51504311611255       -1.50425646491581       -0.82880524035611
C           -0.11824288452643       -1.70602600445507       -0.66027405088968
C            1.85287890263323       -1.29130099525367        0.60396675200956
C           -3.45950036638494       -0.16128538064551       -0.39508672604180
C           -4.31166384169470       -1.19115419810285       -0.74132961079149
C           -2.37013053513429       -2.52918629455951       -1.26292930247214
C           -3.73018234151503       -2.39090630404337       -1.22898612302755
C            0.63999465782683       -2.54043042069391       -1.50687509998075
C            1.97625059065602       -2.72270705673263       -1.30890342836814
C            2.63093935986071       -2.09733609105665       -0.22228274473273
H           -1.92755722573490       -3.46463933961891       -1.56680593796822
H           -4.37481143806953       -3.19247157495017       -1.54994862746079
H            0.14168128481261       -3.00160474836218       -2.34431268770330
H            2.54446101823438       -3.35957492323339       -1.96723716643440
N           -2.10544184915454       -0.29611212195226       -0.51168148440613
N            0.53129319610386       -1.11818021573356        0.39424673382287
C            4.05936766137467       -2.31536092552455        0.00525442234845
C            4.57529765355778       -2.51224877753612        1.28604175380179
C            4.92998017226942       -2.36565310206095       -1.08471080535169
C            5.92790761607988       -2.72748724482094        1.46960988976393
H            3.91348026036576       -2.52427741050342        2.13797121176900
C            6.28117960146678       -2.57791279605555       -0.89471890019419
H            4.54669103187717       -2.20348005850725       -2.08070255432749
C            6.78632522024047       -2.75534993660364        0.38299524963366
H            6.31200724727512       -2.87893649149534        2.46693684718063
H            6.94409147398163       -2.60256477965104       -1.74688666418644
H            7.84294493351344       -2.92025376216854        0.53049534144283
C           -5.76792793501220       -1.07091667058962       -0.61509652660200
C           -6.44304515540808        0.06178040609544       -1.06543764277479
C           -6.49817880378713       -2.11856414695612       -0.05506089179899
C           -7.81728254010221        0.14672935859426       -0.94375493827198
H           -5.89370158254310        0.86631535311969       -1.52951026829390
C           -7.87076374340016       -2.02417250123103        0.07114765980748
H           -5.98111102882583       -2.99450659800310        0.30903525785209
C           -8.53385290577344       -0.89153429940516       -0.37216340153430
H           -8.32967645574216        1.02830870425385       -1.29728096202518
H           -8.42445844384712       -2.83598493435885        0.51877889214537
H           -9.60636265246312       -0.81962605783700       -0.27352370135599
C           -3.93417842704313        1.07380001067425        0.10536117171912
C            2.40070252752663       -0.59855641129917        1.71152914983222
N           -4.33368827467462        2.06443359950267        0.51975235649805
N            2.86094395033368       -0.06028184179165        2.61169424377957
