67
 energy: -119.159292620227 gnorm: 0.000580654252 xtb: 6.5.1 (b24c23e)
Si          -0.45644512280020        0.86718095457680        0.78371226971492
O            0.01536724771724        1.78440335126771       -0.45545175433210
C            0.17648250534820        3.18537842963813       -0.51897514711083
C           -1.13192469094807        3.88593985607615       -0.26255202962545
H            0.91692824490779        3.48736136487040        0.23279055565865
C           -2.31203101249881        3.34177722110962       -0.75185994005072
C           -1.17558864467772        5.05857901642880        0.47783664990457
C           -3.52402181413429        3.95479437890364       -0.49128399830469
H           -2.28213787566808        2.42071173013274       -1.31525926826550
C           -2.38776866856410        5.67623734266641        0.72897608221874
H           -0.26014494046626        5.47492577492956        0.87156243127533
C           -3.56343280315603        5.12408061318365        0.24867658219724
H           -4.43599583665152        3.51153294480241       -0.86204524056674
H           -2.41577268135361        6.58392636076607        1.31377976883288
H           -4.50997156336037        5.60064466405807        0.45825589532520
C            0.70980419617324        3.50481265316582       -1.92673311301290
C            1.98556196437430        2.85941624981566       -2.15106558427756
H            0.81728182105779        4.58724064942589       -2.02914527389463
H           -0.01425281306510        3.14503405145333       -2.66195761626825
C            3.03408624660118        2.30240132613362       -2.30009678957078
H            3.96163601036830        1.83240682227757       -2.44094455417735
Cl          -2.35276828415140        0.34152765620480        1.47485421323996
Cl          -0.11804976425925        2.19863987089346        2.39260881419242
O           -0.67232157596880       -0.39064634870168       -0.61721224495189
O            0.73723745702119       -0.18242995276590        1.42695705278747
C           -0.13990752627067       -2.53859484127865        0.10181776292697
C            1.22665172209307       -2.15378822501821        0.19644414116949
C            2.81448501789824       -0.36257075465377        0.40205413793271
C           -2.37136910202711       -1.93277222052591       -0.48486706339983
C           -2.85499459710758       -3.20369263058646       -0.20699766755074
C           -0.59884148571721       -3.84486240583636        0.36057891456803
C           -1.92041038103452       -4.16583663122814        0.24367576680929
C            2.27550705750399       -2.98655530745018       -0.22245266780059
C            3.54735778168585       -2.50648326523805       -0.37722181391843
C            3.83197035529128       -1.13956784227852       -0.11640337789646
H            0.11683251838006       -4.57532651610345        0.70250716511122
H           -2.26522370961096       -5.16220701541712        0.46936441163499
H            2.03925175565753       -4.00296484720066       -0.49597021977539
H            4.33993582516175       -3.14845127559132       -0.72510771634980
N           -1.06779571127227       -1.62226521922028       -0.32049515513791
N            1.58046757571321       -0.89194219809307        0.63043190399709
C            5.15695298109760       -0.58414863001790       -0.40900687304505
C            5.81547912622647        0.24424564053559        0.49773744560705
C            5.77921310986344       -0.89693878489108       -1.61769964247542
C            7.06283916625179        0.75655800471316        0.19342303597086
H            5.35922247954219        0.46973632858475        1.44915685931361
C            7.02270350466931       -0.37522642806647       -1.91941664720725
H            5.26896544613548       -1.52622338042102       -2.33274595342396
C            7.66765404721471        0.45314357815382       -1.01522005437770
H            7.56394399258372        1.39561970714707        0.90421070794943
H            7.48888752669256       -0.61369259285874       -2.86392144557484
H            8.63940692871743        0.85917914218578       -1.25196774550594
C           -4.27013356255676       -3.54943693547155       -0.36254839102652
C           -4.98447637098806       -3.19693314814216       -1.50606840620339
C           -4.91613256727955       -4.26171281356686        0.64775792680119
C           -6.31796371291982       -3.53964160066091       -1.62695000230663
H           -4.48932478507964       -2.67350932344290       -2.30933410210706
C           -6.25145844048565       -4.59347110815540        0.52463754165558
H           -4.37468047000040       -4.52388952805272        1.54478262683662
C           -6.95636146743337       -4.23336349977094       -0.61232284258718
H           -6.86045537870119       -3.26308209481069       -2.51818867700210
H           -6.74490135962359       -5.13200903189122        1.31985845450732
H           -7.99973441187385       -4.49339744988749       -0.70706539733590
C           -3.18685930809378       -0.89435123701029       -1.00729248209919
C            2.97835337058761        1.00597335223764        0.71961248372739
N           -3.82924468877614       -0.08932647668762       -1.50779304278874
N            3.11331014602861        2.11391652465887        0.97913933942861
