67
 energy: -119.074300427035 gnorm: 0.000789454518 xtb: 6.5.1 (b24c23e)
Si           0.76977386983839        1.58971998852392       -0.58170542674608
O           -1.30777977856633        0.92442833509880        0.92692518213831
C           -2.23572409795156        1.70390121142857        0.91477938374280
C           -3.57725864696169        1.37499468799652        1.39150844073162
H           -2.11456975675608        2.71133922953816        0.49100399186520
C           -3.78501644556059        0.25398316070565        2.19687714969762
C           -4.66564321313160        2.15132572368260        0.99445074777412
C           -5.06020602487623       -0.07697548871183        2.60793917310952
H           -2.92946732535823       -0.33149780738778        2.50046828762450
C           -5.94234693740773        1.79738438406886        1.38536501419493
H           -4.49963673102256        3.00962703328190        0.36169228211520
C           -6.13969042004051        0.68874584855292        2.19464802799248
H           -5.21887266461399       -0.93073981690986        3.24908737764915
H           -6.78776628383730        2.38770467144755        1.06585217586233
H           -7.13822475993716        0.42188193568367        2.50730335534296
C           -1.12278886441673        5.05286645818363       -1.12170542585820
C           -0.76187514758348        3.84617627966171       -1.42355080689228
H           -0.50860776013319        5.89913006511002       -1.38123062801100
H           -2.04633455870517        5.26912899295817       -0.60991473192044
C           -0.36987800958743        2.64395437711238       -1.69655210205105
H           -0.65859283247671        2.19651296593093       -2.63658681547872
Cl           2.49949977637641        1.59696774114509       -1.78321227493546
Cl           0.94732555791341        3.00637825279838        0.94650098404642
O            1.43519777869981        0.45428761611939        0.62026097528777
O            0.05181218451527        0.10413998910101       -1.42387852256482
C            1.64864550836850       -1.77997355729574       -0.09257897516519
C            0.24414859274898       -1.91917807101662       -0.24129418378025
C           -1.87607700431512       -1.02425420659286       -0.87944724582444
C            3.55543974231582       -0.40457466937856        0.34325319771318
C            4.43803727816841       -1.44625134357616        0.11396626039991
C            2.52820947148434       -2.86750808484346       -0.27514108571740
C            3.88028468596169       -2.71182083652585       -0.20084456530881
C           -0.42844498453090       -3.08930091472718        0.17133628456104
C           -1.78573481402027       -3.19214366199724        0.12625217883606
C           -2.56611437475159       -2.12412668026209       -0.39250329874738
H            2.10350758492641       -3.82241029040815       -0.54114213602060
H            4.54148920532029       -3.54577507241554       -0.37296853467390
H            0.16289975636772       -3.88794139609882        0.59036376847173
H           -2.28222589605037       -4.08333980831733        0.47373720897207
N            2.21501366083114       -0.58082870700287        0.26411541046088
N           -0.52457827382952       -0.93098647920481       -0.81734681170792
C           -4.02736709906484       -2.19137346414066       -0.37733750502438
C           -4.80246150913844       -1.75147300205538       -1.44990547041789
C           -4.67228452860024       -2.71508846117708        0.74488355635566
C           -6.18152949816153       -1.80617030727442       -1.38539491033687
H           -4.32502365628212       -1.38928548876861       -2.34686178776262
C           -6.05068255415077       -2.76747525807962        0.80357464755172
H           -4.08581362467280       -3.05506236108582        1.58563826121537
C           -6.81132658377483       -2.30650563649554       -0.25803106863372
H           -6.76708486685813       -1.46075988335604       -2.22376860719311
H           -6.53486305686462       -3.16772999443503        1.68211542954901
H           -7.88900328431095       -2.34496513831354       -0.21038554834228
C            5.89152242539540       -1.27254373918023        0.18752808224997
C            6.49224540480061       -0.60735242142430        1.25457387201046
C            6.69710156745800       -1.80494908029618       -0.81872571993311
C            7.86629567595117       -0.46617439730495        1.30226020278652
H            5.88456749859413       -0.21786574757795        2.05658353364148
C            8.06946045393727       -1.65442198573002       -0.76881600189945
H            6.23930505498480       -2.30919358783465       -1.65724830122391
C            8.65813424960612       -0.98399393463641        0.29087954409940
H            8.31972949345929        0.05125394122195        2.13396501072266
H            8.68178651448525       -2.05899349026098       -1.56101583247946
H            9.73064203089023       -0.86672192612828        0.32838479670706
C            4.00878211129811        0.89060423039964        0.70507028105940
C           -2.54501280463591        0.08275359951452       -1.45336029197246
N            4.40741905938023        1.90805591777298        1.04612943877066
N           -3.09117452109128        0.98480456126844       -1.90280689868532
