67
 energy: -119.075376102413 gnorm: 0.000697520107 xtb: 6.5.1 (b24c23e)
Si           0.28573755010645        1.88643811045210        0.94861466581211
O           -0.40149376622335        3.32755960440014        0.55337595876474
C           -0.99387161959794        3.73854478423624       -0.57672493189712
C           -2.12947104331107        4.53972907708234       -0.55765520797779
H           -0.55830455514017        3.40071791368405       -1.50792366530165
C           -2.73109269562139        4.94946635383803        0.65970226544884
C           -2.73196888529798        4.95913921724954       -1.77110165709102
C           -3.86296685951679        5.72587230579752        0.65195718023499
H           -2.27658726002923        4.63421413633300        1.58610862583843
C           -3.86391194250982        5.73539627253698       -1.75632112358235
H           -2.28364089358312        4.65374645367412       -2.70468740777168
C           -4.43952878385283        6.12587994101016       -0.55014557192433
H           -4.31203729804601        6.03039354724800        1.58638215720574
H           -4.31415909173991        6.04725725266746       -2.68777268286221
H           -5.32916086427211        6.73697636905610       -0.54795701274753
C           -2.55559054679232        0.63983341790873       -1.36477014188332
C           -1.86380120069254        0.60127180031573       -0.27306638453353
H           -2.29837089345176        0.04275670768315       -2.22533843646582
H           -3.43207973550116        1.26014328990916       -1.45574483578370
C           -1.10754022902712        0.62286649776949        0.78400398585749
H           -1.27645595457402       -0.05849554253169        1.60370029390379
Cl           1.73653490793481        1.60372079729845       -0.45532191306458
Cl           0.95603436019522        2.24627494971129        2.78324519148745
O            1.35791620732944       -0.62478815460361        1.69446604991661
O           -0.32832381355286       -2.10998765562863       -2.16620685823447
C            1.47542040876818       -1.99671260037242       -0.13458547192277
C            0.07252880253747       -2.35957170037008        0.07247883052522
C           -2.06532774623045       -2.70747748084189       -0.84068605271790
C            3.35328125939883       -0.80918883026089        0.63378101999108
C            4.14611126402176       -1.28484171021188       -0.41158906598403
C            2.22524873236349       -2.47891024759527       -1.19686277779389
C            3.55029547654407       -2.12448661623879       -1.34929954915662
C           -0.42917386386505       -2.65948110808367        1.33089269051801
C           -1.76158009471439       -2.97140398665851        1.51355988476020
C           -2.60998470447114       -3.00060291328039        0.41089381871199
H            1.75189399176250       -3.13321881849351       -1.91049942966880
H            4.12948354497559       -2.50903366995522       -2.17278516504880
H            0.24113664774215       -2.63444962170351        2.17466050691692
H           -2.14182395527674       -3.20786658044194        2.49381970645446
N            2.04073545507674       -1.14126403287762        0.76361996078405
N           -0.75049011381865       -2.38596472654181       -1.01724810698675
C           -4.03493260660516       -3.32491625592019        0.55360603575100
C           -4.64737791303581       -4.26038843582248       -0.27632603629118
C           -4.78542182167333       -2.69903707910508        1.54658780824782
C           -5.98821037235244       -4.55696607735435       -0.11783833399874
H           -4.06875405790127       -4.77029062643050       -1.03182990092270
C           -6.12782211748068       -2.99249120366345        1.69375324612486
H           -4.31801560902968       -1.96155469209927        2.18251273796662
C           -6.73187946764890       -3.92177353148511        0.86277784210416
H           -6.45328437214637       -5.28612485892529       -0.76359682767213
H           -6.70445325442703       -2.49368335005494        2.45825815294415
H           -7.78020642133070       -4.15097924533586        0.98002113803268
C            5.55914100242421       -0.90198139647081       -0.52167535614755
C            6.41064874973400       -0.96772839963926        0.57839272664028
C            6.06424238028047       -0.48454248348365       -1.75137972283647
C            7.74134597905803       -0.61638187002381        0.44856435426949
H            6.03576452215478       -1.31326775985630        1.53014151456559
C            7.39295424368209       -0.12472245001687       -1.87228377393194
H            5.40288032394066       -0.41535452888244       -2.60233923541718
C            8.23443545483440       -0.19095967463740       -0.77376487365827
H            8.39456433633810       -0.67410000238677        1.30594258586861
H            7.77284689518506        0.20935386998703       -2.82619216825206
H            9.27267016870367        0.08846696350519       -0.87050794470154
C            3.84933931221787        0.10736540185308        1.59192831133708
C           -2.86471262623300       -2.66899081152043       -2.00721248706471
N            4.25280558176715        0.84814831079298        2.36660647678067
N           -3.51447350847105       -2.62672361617364       -2.95006161247651
