67
 energy: -119.159426012429 gnorm: 0.000746996535 xtb: 6.5.1 (b24c23e)
Si          -0.08181815542833        0.95031938823019        0.75887357876876
O            0.74380465542628        1.52369482895070       -0.50402916333367
C            1.48036830606127        2.71961144261156       -0.63071840175624
C            0.58719487037560        3.92697279487486       -0.51507116254918
H            2.24762729180248        2.74636727787773        0.15399955180017
C           -0.71448532214606        3.87706754147796       -0.99468350644010
C            1.05645644669244        5.09508390580804        0.06925467273249
C           -1.54276796677025        4.97889290169259       -0.87924819691241
H           -1.08483078779075        2.96522869675716       -1.43965863958918
C            0.23029979468524        6.19950373829168        0.17423881903629
H            2.06499879735582        5.13007065427601        0.45431368780192
C           -1.07069604943143        6.14265742378469       -0.29712550584528
H           -2.55817963691823        4.92282187545845       -1.24196885914335
H            0.59966767560452        7.10361596221167        0.63568142207626
H           -1.71744569814127        7.00291993601473       -0.20436104241699
C            2.15799014638216        2.67789999947654       -2.01288232599002
C            3.06650478782075        1.55623956341787       -2.11411320823936
H            2.70483817607053        3.61108746245756       -2.16732960249782
H            1.38110747389103        2.58698516738579       -2.77614835033267
C            3.80246031442134        0.61384878325757       -2.16550041268852
H            4.46943315895702       -0.19434490182216       -2.22162271100686
Cl          -2.04696187894892        1.20130935488444        1.41157135059678
Cl           0.69783568203992        2.17611155760611        2.29687075267215
O           -0.73615952313564       -0.21183632878165       -0.58693596451477
O            0.61340895081599       -0.43108300147383        1.50327128754445
C           -1.00981345322560       -2.37209587196533        0.22912929564504
C            0.40425593358474       -2.49132325560050        0.34382613869102
C            2.52140316559882       -1.38011823046580        0.57387122703204
C           -2.87720045761057       -1.04038554648772       -0.42674796660776
C           -3.78116985900551       -2.04613869150771       -0.11309681801265
C           -1.90200635327604       -3.42119105161736        0.52124713855697
C           -3.25093115040808       -3.25851150940455        0.38879740221173
C            1.09488226399784       -3.65096160592608       -0.03673107246966
C            2.45762598191711       -3.65935475245875       -0.16372436539057
C            3.20560656371160       -2.48033850688608        0.09434847001043
H           -1.49310741539850       -4.34390535058439        0.90101252441910
H           -3.92764275045093       -4.05926955123337        0.64078741685983
H            0.51663152727388       -4.52112353326129       -0.30552268324975
H            2.97540934696743       -4.54773170019546       -0.48628599139437
N           -1.54907785578030       -1.20449963215122       -0.24602669758476
N            1.17402623135127       -1.42690946027461        0.76720056177848
C            4.64803600195472       -2.43872914200859       -0.16545970887022
C            5.53841884854761       -1.88202561967517        0.75051662359449
C            5.14395126141717       -2.96982625303196       -1.35657292235852
C            6.89188405006579       -1.84529454358126        0.47134861100998
H            5.17257526021186       -1.49613135991005        1.68929007157257
C            6.49710670989329       -2.92282908092163       -1.63327909866090
H            4.45856942907396       -3.38985202536512       -2.07889429190952
C            7.37445087425828       -2.35932823838067       -0.72088338928636
H            7.57184902931618       -1.41199357881858        1.18863607942537
H            6.86746846322062       -3.32367111117372       -2.56519393293612
H            8.43105867723520       -2.32266667337638       -0.93870653621366
C           -5.22661181844782       -1.87993269962188       -0.28651770949582
C           -5.76344416336999       -1.34843893362844       -1.45772058344805
C           -6.08947801374414       -2.28170700663642        0.73318256832911
C           -7.13178810944186       -1.21220875303848       -1.59706712164911
H           -5.11007046124199       -1.06257280719630       -2.26744555056026
C           -7.45572523035043       -2.13472387299795        0.59117669500531
H           -5.68153807524836       -2.67893428255607        1.65107159303306
C           -7.98100102526255       -1.59972432733668       -0.57381812107603
H           -7.53592943904178       -0.80163069112203       -2.50990993205489
H           -8.11291306835543       -2.43615652163919        1.39319691802862
H           -9.04884059407030       -1.48628635123596       -0.68370263824764
C           -3.27052448920011        0.19413283685742       -1.00777534348814
C            3.15935685469559       -0.15776468997883        0.88817268324195
N           -3.58540167001418        1.14689249985322       -1.55967289218942
N            3.67879046895266        0.82945045181689        1.15126427894910
