67
 energy: -119.166662602136 gnorm: 0.000257341301 xtb: 6.5.1 (b24c23e)
Si           0.53396287585982        1.07208543679705        1.38836750929411
O            0.60237341471256        1.04398164665574       -0.20635014267441
C            0.48685448537708        1.90916506754343       -1.32772483542866
C           -0.86796783770893        2.56866553003004       -1.33715348200910
H            0.57003986759337        1.22854658502787       -2.18461330121023
C           -1.21189004062708        3.50979538002376       -0.37403565891236
C           -1.81251367760076        2.18332634367219       -2.27921008472358
C           -2.48055845718115        4.06017252022133       -0.35939514668861
H           -0.49611877402257        3.80827218956280        0.37899981803064
C           -3.08179095190639        2.73490799171730       -2.26328379746872
H           -1.55792258650039        1.43375310330025       -3.01370377708482
C           -3.41693588560756        3.67478860646829       -1.30413581654153
H           -2.73789966057500        4.78787962585603        0.39559409773643
H           -3.80916771963149        2.41458618914447       -2.99310509765419
H           -4.40806232094598        4.10282104160700       -1.28772253647762
C            1.64612663617597        2.91577210837898       -1.34860606366348
C            2.91046891218357        2.25417565295062       -1.10015326738948
H            1.49592801592636        3.67282785939005       -0.57498795341817
H            1.66120729748424        3.40810133272207       -2.32358517286540
C            3.92599280251282        1.68221711746853       -0.82945683946189
H            4.83711092897439        1.21136050017370       -0.60789594929095
Cl          -1.34560470717311        1.17228603265224        2.09502486896248
Cl           1.71007817542312        2.42476085693012        2.27433649982700
O           -0.86401262472097       -0.93369978135862       -2.28799398023321
O            1.02691259954842       -0.45801265608122        1.77155203163956
C           -0.58364560086823       -1.67698791902938       -0.13118199989686
C            0.85221974665209       -1.67773225819071       -0.28142736426820
C            2.98553100586127       -1.32032129835195        0.78258187497990
C           -2.71960646548938       -1.22982510726021       -1.02472988192113
C           -3.35591079966250       -1.56484657299181        0.17263167061094
C           -1.19141097798691       -2.02849680215479        1.07665430603380
C           -2.55480391543114       -1.97263471272055        1.24006211359557
C            1.51747419203238       -2.00138639858237       -1.44505289595179
C            2.90414549664599       -2.02642983736058       -1.50576187363681
C            3.65688354374880       -1.69301011238738       -0.37310379261532
H           -0.56060729574906       -2.36096133906662        1.88531884089720
H           -3.00936866853369       -2.25964575513293        2.17375211376367
H            0.93622772384759       -2.25157445002130       -2.31722358175106
H            3.40257612478239       -2.31587967236418       -2.41531293852290
N           -1.36811609319074       -1.27911921736336       -1.18487832643970
N            1.59727343552304       -1.36276957633004        0.85276067980657
C            5.12474430167976       -1.71819323442188       -0.41099463711561
C            5.86087757871418       -2.27267156797997        0.63350328318003
C            5.79977128680480       -1.19639758844393       -1.51381327486998
C            7.24225070448008       -2.29118820496245        0.58013460051845
H            5.34922315834092       -2.70554955854417        1.47974830596035
C            7.18123291872743       -1.21048749617544       -1.55834239239611
H            5.23664883447961       -0.75533449155656       -2.32375572372351
C            7.90592235934923       -1.75670488236417       -0.51165241232127
H            7.80187592028564       -2.72468964700188        1.39505837273055
H            7.69362879026908       -0.79200520599773       -2.41202169275931
H            8.98483137462240       -1.76736589833798       -0.54822832006270
C           -4.81478709898415       -1.49991195288777        0.30641775609012
C           -5.65501949688512       -2.05312607979115       -0.65699286574882
C           -5.37306917793672       -0.90170784521038        1.43489746306539
C           -7.02679159363615       -2.00447819896478       -0.49374656484831
H           -5.23328168976387       -2.54132239545604       -1.52275793839245
C           -6.74532569441466       -0.84930027547896        1.58811289415966
H           -4.72454636393691       -0.45455149184066        2.17395138166741
C           -7.57524424296164       -1.40189407014728        0.62616744738553
H           -7.66925045502427       -2.44104644817369       -1.24344358003359
H           -7.16904051347856       -0.37584727706735        2.46125275410599
H           -8.64713218281334       -1.36405480903467        0.74983505199038
C           -3.44798814106201       -0.75955555057376       -2.14219549087018
C            3.64549977360690       -0.83241622726299        1.91757120698229
N           -4.04043423051637       -0.37400970878465       -3.04441883892315
N            4.17362266030077       -0.39465814508284        2.84203034723352
