67
 energy: -119.154099815711 gnorm: 0.000830168044 xtb: 6.5.1 (b24c23e)
Si           0.03759182165635        0.92729030605524        0.38897594048210
O           -0.67909070207436        2.35660482918144        0.14866521542841
C           -1.70675927812660        3.04861124629557        0.81772293516141
C           -2.66607886674829        3.61358216004243       -0.19603092293698
H           -2.23529099325246        2.36075127082980        1.48629730029697
C           -2.18029973225212        4.21608941027274       -1.34919884822979
C           -4.03573540241529        3.55111171161674        0.01685268992301
C           -3.05461548162171        4.75408185417124       -2.27592853832268
H           -1.11462557770381        4.24197617700077       -1.52052476167440
C           -4.90880080922192        4.09581051261363       -0.90827209749863
H           -4.41634869751125        3.06709564363586        0.90394940183579
C           -4.42051505965159        4.69998293984320       -2.05431208431330
H           -2.66956027254019        5.21761755455924       -3.17285444644984
H           -5.97396311967964        4.04366889605728       -0.73632950130198
H           -5.10336384078544        5.12322717622184       -2.77691747634234
C           -1.06819811595118        4.18074223697536        1.65195989623266
C            0.00120506605262        3.65332381094932        2.47206637003859
H           -1.83862504778163        4.64493396548899        2.27171761932772
H           -0.65520161546979        4.93145029743607        0.97232488824708
C            0.90864335352800        3.15357968353250        3.07156033098789
H            1.70915636356033        2.74116614460508        3.60951894378849
Cl          -1.14286788883787        0.28762660118378        2.05024988997728
Cl           1.63166972181441        1.66315108905055       -0.83331756516297
O           -0.55756517166019       -0.13756918442167       -0.82399108035880
O            1.15227984950996       -0.28943420477014        1.09233751779004
C            0.25531864548817       -2.34099964564897       -0.51308682932661
C            1.62513664134861       -1.93132652973452       -0.49614919640046
C            3.32627422492027       -0.45390285579797        0.31482246584405
C           -2.08230352806340       -1.81006461598905       -0.33660416397006
C           -2.43609981435087       -3.14284450840666       -0.24049287447781
C           -0.09797947197954       -3.69888299147930       -0.49655381759501
C           -1.39807935248720       -4.10245233146720       -0.35727815236648
C            2.61185136493569       -2.59164487436509       -1.24756809855224
C            3.91001785590844       -2.16306215252222       -1.25049156054630
C            4.30467065879729       -1.06099696285052       -0.45372715189096
H            0.69673199010359       -4.42776432386865       -0.52635449422015
H           -1.64735617712181       -5.15020742656087       -0.31937721653935
H            2.30633330243593       -3.41302606264601       -1.87626874678451
H            4.64995425244589       -2.66072654835712       -1.85632824311136
N           -0.78802152383973       -1.44017172468743       -0.53319971563258
N            2.04962286318974       -0.90204995145739        0.30422685910130
C            5.69091516410903       -0.58728837361148       -0.46589373161576
C            6.36749502698261       -0.28469264344685        0.71414664969236
C            6.35645950869931       -0.45029374105372       -1.68386796771909
C            7.67776753194395        0.15352621547289        0.67235015723119
H            5.87391753265180       -0.41312798859788        1.66517965653895
C            7.66317971618145       -0.00363902081715       -1.71933741887442
H            5.83211292749199       -0.66234826887530       -2.60377381855849
C            8.32784987519491        0.29859790852465       -0.54196342875616
H            8.19278260576186        0.38303105380382        1.59275364064442
H            8.16416035728938        0.11145988197875       -2.66888076613518
H            9.34940532285963        0.64622572525837       -0.57133052929523
C           -3.82213081604774       -3.56754180153445       -0.02451571291820
C           -4.87305834841592       -3.00874943996055       -0.74934217771984
C           -4.09747024652962       -4.56688449163039        0.90855878933497
C           -6.17038231134256       -3.43440445546012       -0.53434301181031
H           -4.67099016654594       -2.25679986284462       -1.49646912879484
C           -5.39730333600099       -4.98206361465488        1.12459047858429
H           -3.29106570190382       -4.99362247325889        1.48665596173749
C           -6.43713259358914       -4.41745230250592        0.40410392326322
H           -6.97593861772391       -2.99593657019847       -1.10329471375474
H           -5.60013826952066       -5.74719949985448        1.85895278389735
H           -7.45206337353861       -4.74395396414687        0.57303934074150
C           -3.02300818440902       -0.75441375442379       -0.25686830397601
C            3.58491905074923        0.63562867141699        1.18388142677918
N           -3.79132994372193        0.09516855554797       -0.22307157303278
N            3.79897985483491        1.47060563230498        1.93798579404503
