67
 energy: -119.163374738980 gnorm: 0.000402840373 xtb: 6.5.1 (b24c23e)
Si          -0.06000315503639        1.38101567635479       -0.39558041856175
O           -1.50273561512806        0.91241158714950        0.20366781558033
C           -2.38079595959363        1.62469645528188        1.05389735554132
C           -2.94288973601287        2.84800705986964        0.37921659767005
H           -1.82183674196450        1.93149548732069        1.94616776471051
C           -3.35917928672906        2.79313051444767       -0.94346717727875
C           -3.03054722661912        4.04676793779121        1.07371989933581
C           -3.84909145432139        3.92687580957230       -1.56662630922184
H           -3.28291957644154        1.86590335833053       -1.49174154001790
C           -3.52679888106333        5.17725504044815        0.45077225575043
H           -2.69112081017298        4.09669379021782        2.09772055887145
C           -3.93449940594575        5.12030583601239       -0.87126276305819
H           -4.15871223446615        3.87566950321723       -2.59964228274560
H           -3.58277937195750        6.10807812183345        0.99563467360187
H           -4.31056733034959        6.00700050051839       -1.36029483421845
C           -3.49966810866442        0.65067296772674        1.46752878309765
C           -2.94523036473458       -0.45284493934728        2.21977850613004
H           -4.00233921952591        0.27861187741700        0.57093767662354
H           -4.22527863254037        1.18907333546543        2.08182794242794
C           -2.41324080310644       -1.33467023543875        2.82998185807880
H           -1.97560222561266       -2.10587318538179        3.39074217022643
Cl           0.16198989033849        2.23851111551579       -2.22167719700696
Cl           0.25762174790688        3.09423266887827        0.79396628342210
O            1.27163667544054        0.69847944691072        0.43810123119779
O           -0.10852152732308       -0.26331352034656       -1.38548084903779
C            1.77906349028729       -1.61179950325216        0.05778056540140
C            0.42331914711934       -2.03696207350678        0.02238187449010
C           -1.78623087790335       -1.72447325955094       -0.80091415812507
C            3.40665470927561        0.13135739343951       -0.23584135994685
C            4.45023905469079       -0.77065702460923       -0.28300232743731
C            2.84088122711656       -2.53270099763589        0.08155600565185
C            4.14058742260779       -2.14087064294471       -0.07765649709615
C           -0.02891445458810       -3.20191631985700        0.67850435370123
C           -1.33343573045345       -3.59416776979527        0.61484750035559
C           -2.26352257900651       -2.85485436697781       -0.15132897622778
H            2.60051270295380       -3.58045831964000        0.16857360481165
H            4.94019091081100       -2.86316311325570       -0.06832845082774
H            0.67886677045024       -3.75414758909717        1.27571860461320
H           -1.66927976584879       -4.47733157000066        1.13446628438357
N            2.12461070488079       -0.27440721032841        0.00486288862611
N           -0.49654601169892       -1.34012166332387       -0.71499089980825
C           -3.66613552254084       -3.26569143995379       -0.24033510054886
C           -4.33764132971446       -3.29492318377840       -1.46177487825749
C           -4.34569217471810       -3.65208611905632        0.91489698821807
C           -5.66083601496845       -3.69003200166598       -1.52046737711752
H           -3.81630611483992       -3.03003944114789       -2.36907968277011
C           -5.67016957732920       -4.03875627970958        0.85058441422050
H           -3.84129477148542       -3.60825111534218        1.86791528525302
C           -6.33196736336397       -4.05914590992079       -0.36641177408104
H           -6.16910994409737       -3.71047265137620       -2.47243043136969
H           -6.18892069656513       -4.32261708434442        1.75400699900140
H           -7.36672501269371       -4.36259336521280       -0.41495833078586
C            5.83223921530576       -0.34515347800010       -0.52607260111961
C            6.37575616869947        0.74964149480430        0.14353589403459
C            6.62974977272411       -1.05870970784528       -1.41985748929105
C            7.68498475497973        1.12705096804761       -0.08809314495806
H            5.77906556055756        1.29135302773503        0.86124750006228
C            7.93519444019544       -0.67102875792057       -1.65354981235752
H            6.21214523591061       -1.90021831431276       -1.95339406147109
C            8.46618592889730        0.42226883727126       -0.98879850925502
H            8.09578255836954        1.97516152107689        0.43789103683480
H            8.53971637909307       -1.22255404443647       -2.35803791678969
H            9.48672073572745        0.72277270898437       -1.17148334021333
C            3.59591958436445        1.51711368244478       -0.45203425472961
C           -2.62738184441778       -0.89806258327391       -1.58448677183401
N            3.75874287089447        2.63288936566300       -0.65438295584754
N           -3.32300920604903       -0.24958030814512       -2.22288869849334
