73
 energy: -125.504881138264 gnorm: 0.000644679966 xtb: 6.5.1 (b24c23e)
Si           0.46539651654274        1.40783421904690        0.78077745749620
O           -1.03657113882013        0.94769920390113        0.44994981420952
C           -2.27518747514707        1.60624169026379        0.21210071536355
C           -2.16233725107651        2.61067314894939       -0.90641063769810
H           -2.95535235826200        0.80064755211949       -0.09479567704743
C           -1.42748333254164        3.78011716179105       -0.74906867805564
C           -2.76774700139305        2.35098399418486       -2.12949849730274
C           -1.29736484648174        4.67027176897497       -1.79993036466232
H           -0.94346017032065        4.00009856190485        0.19063135239321
C           -2.64027306208609        3.24567713241930       -3.17761491053713
H           -3.33440026677648        1.44254365521792       -2.26992774123031
C           -1.90361307405930        4.40595907326674       -3.01616106514170
H           -0.71764688841704        5.57118760866711       -1.66574567713141
H           -3.11271442358455        3.02762714465456       -4.12315926520823
H           -1.79836212118269        5.10101286250821       -3.83572855849642
C           -2.80637773769669        2.22568873876129        1.51420872642142
C           -2.80444675229446        1.24759415257801        2.58097054158331
H           -3.82190229467587        2.58780804554606        1.33627572312843
H           -2.17636662009897        3.06576996755606        1.81196003561761
C           -2.75635665861282        0.41478793190814        3.43892361869330
H           -2.73177373864221       -0.28720687068361        4.21809569935870
Cl           1.50508636104328        1.82949427278750       -0.88403654407250
Cl           0.58522733967167        2.81299104926035        2.19789859623548
O            1.11793541454757        0.10345310307617        1.54188299380611
O           -0.31759708012908       -1.17816738582532       -2.00190978536116
C            1.34055565583014       -1.72000757752931        0.02510483519806
C           -0.10388934614300       -1.89151535597007        0.15740586785242
C           -2.20968897720447       -1.72378093418473       -0.88344898874232
C            3.28349851628940       -0.56732184181227        0.88610750212235
C            4.07721937793106       -1.15598152657860       -0.09326367399747
C            2.11910698583991       -2.33472575250364       -0.93093060221537
C            3.49349834407812       -2.04516303580944       -0.98897342858308
C           -0.71503999321997       -2.26177631953699        1.35811427809620
C           -2.09646171256252       -2.35006858389939        1.41742548519824
C           -2.86795349505724       -2.09231606708045        0.29154028737247
H            4.10521716340445       -2.52788160370226       -1.73304431881604
H           -2.58124094811923       -2.64939582422700        2.33264168616345
N            1.93014122158867       -0.89189877652328        0.97174732250874
N           -0.85627875918032       -1.59415373708527       -0.94446741030535
C           -4.33365510097304       -2.18569671157980        0.32662802628141
C           -5.03129443023899       -2.89181119454557       -0.65002951897168
C           -5.03905431626949       -1.56346756030639        1.35430427951563
C           -6.41049714761979       -2.97015104173728       -0.59905228474726
H           -4.49186761810720       -3.39399622588636       -1.43931384703885
C           -6.41871388718572       -1.63857077133646        1.39447253095981
H           -4.50080613120698       -0.99399317286234        2.09834174747783
C           -7.10725365706217       -2.34243501716674        0.42012490360989
H           -6.94236445016037       -3.52243744643697       -1.35887341331823
H           -6.95793300132304       -1.14359280734922        2.18845458017603
H           -8.18473077864464       -2.40097171367419        0.45447279423549
C            5.50882098082502       -0.83411455110797       -0.17797364248368
C            6.31644671725665       -0.83526142246928        0.95573438976670
C            6.07414721722720       -0.53523812664116       -1.41529040780922
C            7.66256756785916       -0.53768009181377        0.85138336539789
H            5.89232746775417       -1.08473221140469        1.91668213225711
C            7.41901885926121       -0.23241994301083       -1.51329834422538
H            5.44771237139268       -0.51634917855562       -2.29494191630528
C            8.21642715928365       -0.23358011033979       -0.38081506089633
H            8.28083741222782       -0.54282976816848        1.73640091749813
H            7.84570982687599        0.00758686088559       -2.47595034883502
H            9.26713857093376        0.00263478896881       -0.45867363747055
C            3.75260634510059        0.38551419467766        1.79072179348557
C           -2.92234791319300       -1.35768804482210       -2.04581529845432
N            4.11158469731120        1.19047233543072        2.53346151345555
N           -3.51983156820582       -1.03334514710797       -2.96930016692266
C            0.11190200435864       -2.58679492768071        2.55914545483326
H            1.01362874982396       -3.12800452389606        2.27933661270844
H            0.41365030847218       -1.66566280494979        3.05693978959231
H           -0.46123423298890       -3.18502859711009        3.26268392014449
C            1.53222968999948       -3.31942480302328       -1.88693651644657
H            2.31338687524684       -3.92011653394192       -2.34400741832293
H            0.81992551732377       -3.97613223302903       -1.38952811576373
H            0.99903852166039       -2.77778334440769       -2.67115052758282
