73
 energy: -125.493869274377 gnorm: 0.000845144352 xtb: 6.5.1 (b24c23e)
Si          -0.03717925793103        0.99577580280288        0.28909766737409
O           -0.72937341730029        2.44068606355123        0.10823304880580
C           -1.77425754188665        3.11960570857432        0.76026472556505
C           -2.80055865820205        3.57034775512071       -0.24512061642175
H           -2.24537806604875        2.45401952225639        1.49158959776825
C           -2.41921263688219        3.89948141324210       -1.53807833938913
C           -4.13421302869926        3.68152010231564        0.12291659414115
C           -3.36199543709800        4.33133904808416       -2.45351354216747
H           -1.38283467763906        3.79791097291879       -1.82170973396297
C           -5.07405012820249        4.12162762474872       -0.79118215246987
H           -4.43521501064520        3.41387811888070        1.12551351978051
C           -4.69000106785933        4.44725322783139       -2.08096415429591
H           -3.05858569393560        4.57870713162773       -3.46061493256092
H           -6.11055729688718        4.20418569826947       -0.49822742196730
H           -5.42587912032132        4.78612620322557       -2.79586098892568
C           -1.16213515282070        4.32927844428236        1.49865525301844
C           -0.07623947533990        3.88233674409507        2.34543315361033
H           -1.93860987478696        4.82145893296265        2.08852014498883
H           -0.77215361907087        5.03359463951845        0.75862510346126
C            0.83833731056426        3.43056547298912        2.97142426365437
H            1.64972943102446        3.06786149979512        3.52864378048197
Cl          -1.37035385954263        0.26296981441630        1.83069420384770
Cl           1.57494056833909        1.77126445292740       -0.89652301028204
O           -0.50673610704246       -0.07343638474308       -0.97440421002814
O            1.06212190726060       -0.13790655582690        1.09705001439887
C            0.25470960761810       -2.23209180134617       -0.40896911869401
C            1.62268793331298       -1.74654533877832       -0.50172542930140
C            3.26156962912024       -0.21908352977868        0.36318168897330
C           -2.09080232129641       -1.68097140014255       -0.43877652571104
C           -2.43760372939115       -2.97104687916394       -0.07396395253776
C           -0.06784952707200       -3.53930423876245       -0.04509373905069
C           -1.40066893146139       -3.89753479184846        0.11546930434690
C            2.57503967666058       -2.25427522612507       -1.38739221543990
C            3.86284015137876       -1.74041312965075       -1.37273496244715
C            4.23967550113470       -0.72904729675142       -0.47516360453639
H           -1.64514880782552       -4.90032307566115        0.42752356299451
H            4.59096042989419       -2.11549758449175       -2.07436159293937
N           -0.78283280965276       -1.36048728631229       -0.65103953464633
N            2.00977030746908       -0.74244423293443        0.35260405126609
C            5.60819562855928       -0.20225629362388       -0.45308188284560
C            6.28200349056700       -0.01410593055054        0.75164362166249
C            6.25437438294106        0.10497211852320       -1.64869595564567
C            7.57403410130946        0.47674942252335        0.75735936504003
H            5.79912570332141       -0.26972185690224        1.68268618000868
C            7.54312892380454        0.60332129422738       -1.63614928220106
H            5.72851674700629       -0.01485530912942       -2.58395254773570
C            8.20667073311531        0.78898876980668       -0.43440978098020
H            8.08757165567958        0.61714809199446        1.69636195496674
H            8.03080215655566        0.85119274473808       -2.56707926675056
H            9.21379066868115        1.17761858736010       -0.42676066171675
C           -3.83823189099538       -3.34736466761492        0.14868722737153
C           -4.83072619375098       -2.99134038063804       -0.76150883010546
C           -4.18565492155669       -4.08112022421171        1.28129587871787
C           -6.14430280669252       -3.35843199161529       -0.53692297203715
H           -4.57006566898901       -2.44185002600305       -1.65328534985145
C           -5.50180005770957       -4.43787897948456        1.50462035136546
H           -3.42502711282255       -4.34052906079554        2.00259650344359
C           -6.48390173983876       -4.07887778959605        0.59613257847333
H           -6.90544323703784       -3.07852909000772       -1.24921111350682
H           -5.76274534545586       -4.99497352879986        2.39204367416392
H           -7.51155728970965       -4.35896202453336        0.77186898031329
C           -3.03003970616335       -0.64077332216086       -0.60294036351512
C            3.48756462749721        0.83799834718426        1.27236923500188
N           -3.79511798141707        0.19748657921062       -0.77158677462639
N            3.67111565241462        1.65549800624193        2.05510175270945
C            0.98747162944860       -4.55369368173410        0.27101675918790
H            1.03227410959143       -5.30501089738337       -0.51634060896522
H            1.96713981602847       -4.09970474654594        0.37938791372396
H            0.73435721184328       -5.06434181369498        1.19773523739798
C            2.21656987525280       -3.28207174602617       -2.41552347788898
H            2.54183394182864       -2.93779108233999       -3.39534262373273
H            2.72989094927834       -4.22021638714900       -2.20985231631136
H            1.14691274847728       -3.46246577338117       -2.44870930584769
