85
 energy: -139.914635937761 gnorm: 0.000488791976 xtb: 6.5.1 (b24c23e)
Si          -0.21404800759568        0.27376344309760        1.57089279410852
O            0.31708104207455        1.78406238348157        1.32474441742279
C            0.13634504627154        2.72884346225576        0.28469565439775
C            1.36147687058507        2.66823424046101       -0.60080556877343
H           -0.74728542653439        2.45152177268428       -0.29760129032650
C            2.50068734520797        3.42495569535622       -0.35222413649449
C            1.39349141420125        1.73637042631765       -1.63348568163102
C            3.64064679993913        3.25213216958687       -1.11941189083962
H            2.51065377350395        4.14588541331253        0.44997076594278
C            2.53567296342594        1.55334023257600       -2.39142728396083
H            0.51576445320718        1.13844657237419       -1.82642721718002
C            3.66460546119164        2.31401049806770       -2.13660540547960
H            4.51810817322766        3.84763196193708       -0.91369898464613
H            2.54731729520173        0.81386165921582       -3.17965957102787
H            4.55756046426708        2.17385006987534       -2.72798751795523
C           -0.10721609114474        4.09443416755351        0.94065956098727
C           -1.38645627586505        4.09140747025558        1.61894460492228
H           -0.08585372344700        4.87620781497687        0.17662693624900
H            0.67299589316232        4.28146410264273        1.68169838958583
C           -2.43802822337573        4.03817701660855        2.18583725796473
H           -3.35467269416575        4.00463520967942        2.69296817569670
Cl           0.70650053300175        0.25143477920397        3.46933274639893
Cl          -2.07702164569580       -0.27109362530451        2.30643220514256
O           -0.88971826508432        0.22476506187581       -0.16663314414449
O            0.75341541899750       -1.08368578188821        1.19412118676496
C           -1.02939039464324       -1.98212741586522       -0.88677139444397
C            0.38790095868939       -2.08142562343136       -0.93837299663129
C            2.58008121998367       -1.48202350534510       -0.15583207052040
C           -2.99084342456174       -0.63202039190581       -0.62788865928488
C           -3.81535052983288       -1.69309498175707       -0.96649093389895
C           -1.85780292028897       -3.06318163710342       -1.25205393218547
C           -3.21525601458761       -2.94065515814290       -1.25093431053801
C            1.00476121869510       -2.82672192791400       -1.96684324260548
C            2.35545359255577       -2.82807572968351       -2.13454733802133
C            3.18258513321115       -2.10606795927504       -1.23388021292752
H           -1.39113867867388       -4.00946803527474       -1.47183920169344
H           -3.84389579045001       -3.78224394929070       -1.49522616257714
H            0.36628051852853       -3.33846896941160       -2.66877204232779
H            2.80704444639868       -3.34925601739281       -2.96320145144519
C            4.63134460437786       -2.04624180540820       -1.44175929534192
C            3.38221613600626       -0.94504266579871        0.95923821547439
N           -1.65650183483605       -0.80383686177974       -0.56001744749164
N            1.23378739201357       -1.47369102141776       -0.02742982263741
C           -3.52303968225279        0.71993861541073       -0.38820717703821
C           -5.27517088551504       -1.55200020148442       -1.04905559764059
C           -6.09016123879963       -2.47717795069611       -0.39991217580409
C           -5.87028257607668       -0.53066277246369       -1.78667894570902
C           -8.04918029167687       -1.34479590383174       -1.19454302780842
C           -7.24660950173615       -0.43036147018232       -1.85676645275334
C           -7.46637183614432       -2.36951003920884       -0.46780066771865
H           -5.63719094974992       -3.26644544710863        0.18215905784874
H           -8.08651603632828       -3.08626730160664        0.05011939745743
H           -9.12433242732236       -1.26065612318136       -1.24700299625688
H           -7.69549194106214        0.36500011534311       -2.43323095675809
H           -5.25169083453554        0.17682696941897       -2.31790562204956
C           -4.50004064062249        0.93694840720515        0.57728286466538
C           -3.08861836251987        1.78052316241203       -1.17740576758061
C           -4.60161384809347        3.25338477694567       -0.04414377200544
C           -3.62809292720438        3.04186845465115       -1.00419310584848
C           -5.03252979744363        2.20028789049637        0.74609330014562
H           -4.81915134867629        0.11798005457546        1.20136554857728
H           -5.78966136891267        2.36189797724442        1.49879421210290
H           -5.02112636656018        4.23957526020498        0.08703996116692
H           -3.28768248359209        3.86008842478921       -1.62143066346318
H           -2.34708947170998        1.61018049220680       -1.94572243818153
C            4.24148100726240       -1.81326081823810        1.62845114838476
C            3.30456371848473        0.38241571164976        1.35899720380700
C            4.91904448936249       -0.03243969616685        3.08331917719395
C            4.07232985510928        0.83421460547183        2.41559680091531
C            5.00202654743581       -1.35686865005506        2.68713755621480
H            4.29632709169297       -2.84861301934478        1.32492689777265
H            5.65671452012142       -2.03963907405432        3.20800818435841
H            5.50947530287932        0.32047100201962        3.91536806105811
H            3.99565554218297        1.86539133503146        2.72319322571668
H            2.64800929171250        1.06132571642279        0.84276530912945
C            5.33604360696186       -3.18464231807994       -1.83200764362036
C            5.32752973493861       -0.84769450898173       -1.28303710470226
C            7.38389648501445       -1.93626665731716       -1.87293128092955
C            6.69065617751878       -0.79677346281814       -1.49738675773712
C            6.70097243433425       -3.12930150216129       -2.04051008587250
H            4.81369262195127       -4.12370776564677       -1.94506262490254
H            7.23530190409677       -4.02163896419515       -2.33220740462676
H            8.45037910070298       -1.89439877560282       -2.03580185804582
H            7.21584237130973        0.13859019172890       -1.37228992785923
H            4.79081478632685        0.04736269920088       -1.00817455562403
