85
 energy: -139.918008232043 gnorm: 0.000279724893 xtb: 6.5.1 (b24c23e)
Si          -0.21364789013257        0.50995983198471        1.21105018093242
O            0.43044632294523        1.62970520468613        0.23554252720878
C            0.99454894807579        2.88727647285609        0.48653938934268
C            2.19379498520555        3.09397140203695       -0.40287261617879
H            1.29158276333698        2.95361327426968        1.54111332509642
C            2.28112414178529        2.44647977599197       -1.62701597249931
C            3.19989207901031        3.97334804394583       -0.02527393433737
C            3.36218313013826        2.67045636885897       -2.46102019978454
H            1.49732539251261        1.75992711364525       -1.90849750162591
C            4.27546174403720        4.20454027928471       -0.86384931810506
H            3.13865383790700        4.47286320962760        0.93082167336032
C            4.35941916741775        3.55332075099559       -2.08369312326476
H            3.42577319769839        2.15851976125056       -3.41084308526396
H            5.05391115080088        4.89099226109151       -0.56361635442029
H            5.20181560981461        3.73162331318162       -2.73646976834766
C           -0.05503203437356        3.97887662190388        0.18328778953432
C           -1.18067278193074        3.88119957186213        1.08577132019313
H            0.41619002851321        4.96065094160535        0.27642108293628
H           -0.40260149034136        3.84323552787905       -0.84453089766109
C           -2.10413040414874        3.76204259668695        1.83662990402104
H           -2.90903079517830        3.65592253242566        2.49986509419872
Cl           0.74821509840405        1.14198495916810        3.03557228309136
Cl          -2.06860992473562        0.43260626190100        2.14680272094490
O           -0.91436608822914       -0.10675125173725       -0.34727059462655
O            0.58264148482774       -0.98264027162926        1.42737946312822
C           -1.31285596395968       -2.39529365568597       -0.22597452303692
C            0.08492478264194       -2.64856485008054       -0.19657724117977
C            2.33184498560822       -1.88682893731917        0.21269523338844
C           -3.11061275073069       -0.82716073978086       -0.48488704342930
C           -4.04782569367881       -1.85026237632560       -0.50682851158111
C           -2.25941475366275       -3.44046685771715       -0.23803750871265
C           -3.59208489093979       -3.17929218675208       -0.35164598747344
C            0.62742579527867       -3.75408629666571       -0.88680918768483
C            1.96989401187554       -3.88248476413029       -1.07575236082394
C            2.85871514150580       -2.90002558130531       -0.56277173500021
H           -1.90594960047387       -4.45031066574124       -0.10841920676371
H           -4.31104747244283       -3.98324435279194       -0.34655392642549
H           -0.05640481672981       -4.45992289174299       -1.32972498876591
H            2.37320018388162       -4.71805258165760       -1.62497384585509
C            4.29647548483340       -3.00030867063675       -0.84780432753620
C            3.17796186192397       -0.83541358857585        0.80681957509667
N           -1.80092116406295       -1.11464129518475       -0.34409930616132
N            0.99618136822051       -1.81722276905285        0.42940488618897
C           -3.49564804266933        0.58870649050006       -0.61050248137425
C           -5.47901314546210       -1.59570425132638       -0.71422397328622
C           -6.41960712848768       -2.21434893697380        0.10718877974256
C           -5.92577877444399       -0.77325483335737       -1.74727585789453
C           -8.20480656649032       -1.17232406477295       -1.10922257750704
C           -7.27765110041024       -0.56482072611433       -1.94031334628468
C           -7.77107443466796       -1.99874336884018       -0.08623098128491
H           -6.08409346761380       -2.84474750601761        0.91777550679039
H           -8.48874748415230       -2.47575301415196        0.56495881720647
H           -9.26064638591229       -1.00427117986190       -1.25992437534955
H           -7.61031465522099        0.07337349212867       -2.74554235941700
H           -5.20925029227853       -0.30855942341827       -2.40751518205309
C           -4.48057490801336        1.10906174776422        0.22557358646035
C           -2.89297703031148        1.41450553987243       -1.55359835674985
C           -4.24282079688674        3.25604980758104       -0.81722750104447
C           -3.26957349476532        2.74115145056412       -1.65474216990268
C           -4.84686449467777        2.43591385715348        0.12154948824407
H           -4.92969955480255        0.47617602905927        0.97424417966096
H           -5.60416178895820        2.83374025256597        0.78027010718778
H           -4.52611051304041        4.29524889109502       -0.89180498363032
H           -2.79903560166752        3.37631611124933       -2.39104843554747
H           -2.13314579631864        1.01735280324304       -2.20911836500364
C            3.25033619476577       -0.65045261814067        2.18304229434417
C            3.92919810598387       -0.02276089743321       -0.03753001268813
C            4.79181040268926        1.15802140478422        1.86153137374475
C            4.73352269305130        0.96759114281476        0.49100657376998
C            4.05328181353373        0.34674774625579        2.70479539311807
H            2.67657009462216       -1.28165877383217        2.84329532924625
H            4.08825354113930        0.49447576537750        3.77282288753652
H            5.41286392885550        1.94069604521930        2.27085144987521
H            5.30807722827173        1.59717260253942       -0.17090634639416
H            3.87094977291179       -0.16243139596108       -1.10662723106821
C            5.25281774982225       -2.88691131706298        0.15923511215170
C            4.72058718742817       -3.24045631158207       -2.15367091547429
C            7.01046717353335       -3.21369671446859       -1.44292951276862
C            6.06709205497227       -3.33997135042731       -2.44874865261936
C            6.59772202538667       -2.99283012827663       -0.13917940396505
H            4.93895515372102       -2.73034155211489        1.17964633521795
H            7.32813622612639       -2.90449360620396        0.65122594202271
H            8.06242144106989       -3.29082085882847       -1.67359045404863
H            6.38171862901957       -3.51477427586203       -3.46726404613282
H            3.98739385790371       -3.32508656737728       -2.94317001694746
