85
 energy: -139.912294821553 gnorm: 0.000513820165 xtb: 6.5.1 (b24c23e)
Si           0.03670332301295        0.75453039376784        0.40737309639142
O           -0.73213608082323        2.17459556176886        0.59085534808410
C           -0.68443053685094        3.41839819473591       -0.06075948001202
C           -2.07619815961265        3.83257832038961       -0.46459026472497
H           -0.03664614052535        3.35462820079561       -0.94182134538561
C           -3.11163211038545        3.76202056140154        0.45811861414479
C           -2.32453030466785        4.34885657128665       -1.72827420255769
C           -4.37054586196906        4.22961750728903        0.12988252989488
H           -2.92337088532315        3.32906307003952        1.42862583002841
C           -3.58838376977639        4.80565289863184       -2.05978522880458
H           -1.52332934392838        4.39729356732777       -2.45201414890808
C           -4.61068465519406        4.75725245801998       -1.12786464550877
H           -5.16444384802330        4.18936941661209        0.86133729832842
H           -3.77327187877912        5.20675956990851       -3.04604203457281
H           -5.59333065620893        5.12693236686084       -1.38367176914423
C           -0.12060070053039        4.47780100466973        0.90886106297742
C            1.24907141183021        4.18885799859785        1.26624472882082
H           -0.18156670617636        5.45915529300398        0.43019934163660
H           -0.73643610694205        4.48299359831492        1.81187223083704
C            2.37657427416618        3.91625376298071        1.55686615307351
H            3.36750850381536        3.67953269314539        1.80149966898901
Cl          -1.06171071864430        0.09918805851092        2.10223723880556
Cl           1.53164761079754        1.49981785310333       -0.98266124690497
O           -0.69360753588706       -0.19229957981892       -0.81250561964562
O            1.17836891392257       -0.45786520521408        0.96110451048860
C           -0.04657905202492       -2.43962474329652       -0.54481711704730
C            1.34633574152350       -2.14146467556604       -0.64706591854732
C            3.28018996511815       -0.89669529596279        0.04291713542565
C           -2.34387986857240       -1.75759209694365       -0.35866176857590
C           -2.76068464520735       -3.06650704404261       -0.19978804798902
C           -0.47395857585914       -3.77832236790943       -0.46218851532818
C           -1.78676106776592       -4.09353456411679       -0.27014617321873
C            2.17901288056223       -2.92652910940348       -1.46547941011402
C            3.51529478190186       -2.67352647629498       -1.56341252029393
C            4.09958873574561       -1.64550066967480       -0.78609561610062
H            0.27864228682763       -4.55030287476661       -0.48066890916325
H           -2.09907165485605       -5.12089662237344       -0.17241467918599
H            1.71968502818210       -3.69954907153949       -2.06047036125340
H            4.14298496727806       -3.26019227416635       -2.21505417538669
C            5.55420244540103       -1.44163374704193       -0.85250113711765
C            3.83718168564235        0.15308943028551        0.90991667221081
N           -1.03770091318622       -1.48126093457510       -0.55290651150467
N            1.95667450632097       -1.15196592395546        0.09442801152049
C           -3.30090188152446       -0.63968725098220       -0.36189459475560
C           -4.17215159930478       -3.41945391604562        0.00714459883740
C           -4.51730795327268       -4.29132748008557        1.03767476330839
C           -5.17637527553494       -2.93014174653057       -0.82567620676414
C           -6.82997153585769       -4.14469885118167        0.41986977961318
C           -6.49375191640706       -3.29122395654837       -0.61810939357957
C           -5.83719882500641       -4.64520675274213        1.24538785163442
H           -3.74602196792132       -4.66964658944650        1.69263974728395
H           -6.09261807812671       -5.31242501149557        2.05543167073509
H           -7.86099724687123       -4.42101817731384        0.58250023442859
H           -7.26222190774456       -2.90589123352151       -1.27173961940111
H           -4.92028239850798       -2.27670533386859       -1.64559597284402
C           -4.14137763190926       -0.45165484024263        0.73056441030279
C           -3.42069332976108        0.18524234832184       -1.47608758062960
C           -5.26627873517040        1.31226835725380       -0.44241361378101
C           -4.40526727638931        1.15414746491662       -1.51451064770675
C           -5.11741545120122        0.52476751352550        0.68688207999969
H           -4.01224639132026       -1.06174551943513        1.61013866472477
H           -5.76966303743791        0.66551029769567        1.53552073072742
H           -6.04923456281635        2.05355109414847       -0.48792998203017
H           -4.50264800837390        1.78603095424447       -2.38450259406641
H           -2.75765890042396        0.05202490949933       -2.31769406947020
C            3.61075514146291        0.13393109095119        2.28306779065645
C            4.66966554368204        1.12709888805631        0.36368877675061
C            5.09529342961361        1.99929916254801        2.55821559671485
C            5.29654279611802        2.04213661809981        1.18646675321959
C            4.23988118681027        1.05518748470189        3.10070367110079
H            2.95570821169796       -0.60900439455022        2.71172165060225
H            4.06378586097385        1.03162736198884        4.16575334082742
H            5.59416737026736        2.70992896571829        3.20208175809070
H            5.94267678503441        2.79320113095577        0.75590141693016
H            4.80766055308271        1.17083401615334       -0.70486585034492
C            6.33770136252456       -1.42274323764027        0.29967695653653
C            6.17580486679345       -1.31147354802271       -2.09238661600594
C            8.31454376494338       -1.11276789537404       -1.02573288193501
C            7.54500786393383       -1.14106308217110       -2.17657622950709
C            7.70670473505315       -1.25922962505932        0.21055605318699
H            5.87115278956605       -1.55029656783362        1.26493723075658
H            8.30331960195960       -1.24883341354479        1.11069922241600
H            9.38413477342109       -0.98083011574859       -1.09187669687021
H            8.01318326892109       -1.02920768817204       -3.14351918237226
H            5.57475172071994       -1.31862350599498       -2.99012164200282
