85
 energy: -139.914342544841 gnorm: 0.000249494703 xtb: 6.5.1 (b24c23e)
Si           0.10575540653152        0.76239310476164        0.09834826662222
O           -0.47612235463581        2.26316947446066       -0.09428995381145
C           -1.38886034005500        3.06318767280252        0.60562671483889
C           -2.42258938722959        3.62672634290348       -0.33493522400221
H           -1.88556778679886        2.46904566548019        1.38246844048969
C           -2.17885336462985        3.70849038461302       -1.69786933925333
C           -3.62239887173855        4.10836431258115        0.17314334910928
C           -3.12563121254943        4.26057796653767       -2.54310069150496
H           -1.24741535451612        3.32782600084560       -2.08681311516864
C           -4.56342991924575        4.66805622520336       -0.67144697790098
H           -3.81819330628360        4.03783025737971        1.23385354310744
C           -4.31774143776798        4.74432967847304       -2.03250432790881
H           -2.92942435894231        4.31685199999894       -3.60416474805650
H           -5.49277235260183        5.04404527701786       -0.26779909729499
H           -5.05504166358849        5.17882794720482       -2.69209469646390
C           -0.60647364236250        4.21584300339572        1.27168077687815
C            0.32902093643350        3.69190060195373        2.24160655984693
H           -1.31018468894961        4.89697645417099        1.75612892095979
H           -0.06045226439179        4.75623069732621        0.49359011010134
C            1.09681068962343        3.19879001943209        3.01506503890033
H            1.76559390506370        2.78569838572137        3.70782210768570
Cl          -1.00943717078939        0.31628639488574        1.89828364591955
Cl           1.52233193392904        1.29399417568977       -1.42426036472431
O           -0.65300709380525       -0.34633255256920       -0.94985308030489
O            1.23330521235364       -0.34610915340333        0.82981701812152
C            0.08855150876572       -2.52788363565067       -0.46134485488579
C            1.47083520755950       -2.18917292022041       -0.58538507201739
C            3.34406745939224       -0.78554659099893       -0.03899127331497
C           -2.23473341417775       -1.91074442374041       -0.30028865252308
C           -2.60521265242980       -3.21515405782288       -0.03160974139973
C           -0.29560518978357       -3.86947417645813       -0.26956956778688
C           -1.59616195654867       -4.21179155479369       -0.04367448077109
C            2.34671983035009       -3.01209169969555       -1.31881211604341
C            3.66851803035649       -2.70163632256198       -1.44870083765993
C            4.20172242928507       -1.56510516648793       -0.79451458288967
H            0.48089900960817       -4.61678726474176       -0.23479243402250
H           -1.87229687733680       -5.23945755369759        0.13026749882801
H            1.93042190085934       -3.86442801073103       -1.83138491769209
H            4.32333433199485       -3.32245862450991       -2.03922278222105
C            5.63276217797682       -1.25861050284932       -0.91557624041204
C            3.80540986629373        0.39949992137133        0.70350251893158
N           -0.94014963600584       -1.61058169311266       -0.54119493478397
N            2.03961355193356       -1.10930240932779        0.05290980982303
C           -3.20791778450231       -0.80511429015463       -0.33439078409603
C           -3.99863951038295       -3.59341920397718        0.23636924785744
C           -4.28799259724876       -4.43118184101330        1.31208945891762
C           -5.04307620160801       -3.16012061044281       -0.57830750802207
C           -6.62312476367243       -4.36275342367253        0.77061605674780
C           -6.34332612497217       -3.54293506191711       -0.31039736554350
C           -5.59069284975269       -4.80719796395482        1.57952681979455
H           -3.48671089717817       -4.76554212489334        1.95500774938474
H           -5.80163696969673       -5.44765936092525        2.42330971762795
H           -7.64083662930034       -4.65638871406798        0.97990426878955
H           -7.14299059603487       -3.20134204729363       -0.95078831337916
H           -4.83173274812700       -2.53473711070308       -1.43207032144962
C           -3.98055401009514       -0.54353769595054        0.79290416169733
C           -3.37290053139929       -0.03011085968649       -1.47808673047808
C           -5.08641987905180        1.23515161529670       -0.37685998852100
C           -4.31489716790133        0.98135051728717       -1.49757048716167
C           -4.91024495669688        0.47799818357107        0.76923941210113
H           -3.83037112382098       -1.12643108937074        1.68766541232916
H           -5.49976038178405        0.68276760887323        1.65015485249482
H           -5.81924049072081        2.02733884434478       -0.39740118203931
H           -4.44309397077925        1.57757415633967       -2.38810717172706
H           -2.77158190502025       -0.22661883473614       -2.35276295014591
C            3.65434981200183        0.46716410385264        2.08455259950368
C            4.42161050173151        1.44503545009781        0.02350269614988
C            4.73801809306190        2.60778187126868        2.09858943279632
C            4.87401540154070        2.54810628366933        0.72140773443043
C            4.13281582728815        1.56417501511371        2.77731086529536
H            3.17400224472029       -0.34259549177030        2.61384903794933
H            4.03762552560273        1.59970337106585        3.85318131322083
H            5.10004228873307        3.46834407825560        2.64168691016184
H            5.33663276492676        3.36454627096269        0.18791727926739
H            4.51062869308808        1.39723494662146       -1.04961115833161
C            6.41823751692877       -0.98991531636644        0.20362252406302
C            6.23349425930858       -1.26724257819260       -2.17298950498145
C            8.35228918138128       -0.71950534176737       -1.19176591372121
C            7.58137101179460       -0.99388631170439       -2.30904572761713
C            7.76661496126735       -0.72269674605977        0.06351465869157
H            5.97262799097214       -1.00694522470370        1.18646857473874
H            8.36457105931875       -0.51842209601054        0.93934840151363
H            9.40547394448876       -0.50675588916886       -1.29836883383909
H            8.03219197086155       -0.99329179389709       -3.29056753956622
H            5.63015694960033       -1.46299494505516       -3.04726592028419
