85
 energy: -139.914545948261 gnorm: 0.000675371452 xtb: 6.5.1 (b24c23e)
Si           0.09974362531948        0.80796618717518        0.06148970290295
O           -0.58378394198699        2.24573358449590       -0.28912299838619
C           -1.43602393395037        3.11533501790980        0.39963274027438
C           -2.51315277751704        3.63905562219965       -0.51432417365606
H           -1.89252066421302        2.59082672754860        1.24862778733186
C           -2.33524352534554        3.64947274887616       -1.88999824942349
C           -3.67957055817352        4.16527284877087        0.02618640110248
C           -3.31560052335635        4.17145842369260       -2.71588750053448
H           -1.42780602150226        3.23572963197132       -2.30137282300716
C           -4.65539500789472        4.69282904805272       -0.79953109536254
H           -3.82207093576250        4.15374252727229        1.09758890609804
C           -4.47620290499824        4.69607259964156       -2.17321722873234
H           -3.17154548474553        4.17215288870659       -3.78678178579479
H           -5.55985072248942        5.10138903894975       -0.37188644562310
H           -5.24034002728229        5.10610737959169       -2.81779276892873
C           -0.60246058281923        4.30618122334507        0.92851529450451
C            0.48091496339608        3.83306523919154        1.76024665117791
H           -1.25314209417956        4.97680109505871        1.49439819285519
H           -0.18770006415966        4.84560316766588        0.07216899941124
C            1.37745823928322        3.37247210711662        2.40480271555786
H            2.17349565299680        2.99475035824491        2.97276149941422
Cl          -0.84674429852968        0.53421894110690        1.94922634359151
Cl           1.59711836739750        1.33333028582866       -1.36589827605788
O           -0.73007626157119       -0.27999072737729       -0.95791151493039
O            1.17608447328283       -0.42400971845172        0.74969654713800
C            0.05035455568407       -2.49737553713728       -0.68165952287462
C            1.42975574330321       -2.15278898448806       -0.79381360330117
C            3.30623031708501       -0.84295892485174       -0.07309131243754
C           -2.24652956555236       -1.89633563878681       -0.28620126887597
C           -2.60594824010976       -3.21927770666577       -0.11803520247771
C           -0.33402408131275       -3.85165819325477       -0.61869369710477
C           -1.61633466826156       -4.21408220918259       -0.33218369842077
C            2.30320114084794       -2.89874662252413       -1.60832488746109
C            3.63079628471966       -2.59545909187842       -1.68235442924208
C            4.16891130806132       -1.55696765638858       -0.88695973777863
H            0.43494412962043       -4.59965170996172       -0.72737595633544
H           -1.89243267798002       -5.25344277624239       -0.25584938868249
H            1.88273691633595       -3.68129829186562       -2.21916913647650
H            4.28729806321112       -3.15286578882333       -2.33151711293002
C            5.61061898909327       -1.27960743588202       -0.92716012476549
C            3.77708035320266        0.23780922917299        0.80860039782611
N           -0.97310972280238       -1.57138786961477       -0.60482926800844
N            1.99449516107520       -1.14522839847646       -0.04761457555238
C           -3.21339023014809       -0.79614313042634       -0.12187095997546
C           -3.97064111770947       -3.62002600870537        0.24892689618773
C           -4.15860720803293       -4.55684639097188        1.26374933124331
C           -5.08709136649984       -3.11061509792837       -0.41103787820519
C           -6.53533581315912       -4.43702587178610        0.96961462164967
C           -6.35753518044370       -3.51757606598873       -0.05104640618917
C           -5.43130967694318       -4.95673705307534        1.62445792617327
H           -3.29980084074864       -4.95205953878547        1.78690064509923
H           -5.56263759160385       -5.67505665995280        2.42035931248526
H           -7.52961477706253       -4.74974492744835        1.25135168200962
H           -7.21400718807997       -3.11631230179550       -0.57224476348716
H           -4.95665186157956       -2.40629420544176       -1.21811276667579
C           -3.84643794001028       -0.62963586407104        1.10559938653034
C           -3.51692252842031        0.05771842925719       -1.17707702007007
C           -5.09509399267069        1.21174346102925        0.21099809949739
C           -4.46292791883162        1.05149185522031       -1.01006771557243
C           -4.77783520189565        0.37749112010717        1.26955416733706
H           -3.59019344149529       -1.27674150755731        1.92960447085643
H           -5.25755714298771        0.50904570342774        2.22761301460774
H           -5.83051394862685        1.99213081495731        0.33596005665168
H           -4.70317501142879        1.70665399135755       -1.83340797879196
H           -3.02057436821454       -0.06415308866437       -2.12779790707957
C            3.55884406502237        0.16779364238041        2.18091136176343
C            4.47941322605012        1.31392863677244        0.27514317663143
C            4.76981509853686        2.21797788610289        2.47878080323200
C            4.96574085102964        2.30157051820161        1.10974015290893
C            4.06277216131420        1.15242859026483        3.01136864214813
H            3.00486623315437       -0.66011370896802        2.59762768216940
H            3.89942126820110        1.08583211230250        4.07776631955295
H            5.15955263403178        2.98801422669433        3.12910223415622
H            5.50132053478699        3.13997766615086        0.69099413262043
H            4.61366207339058        1.37946034647880       -0.79235853479822
C            6.36404320034606       -1.18171054145723        0.24097004351870
C            6.25255037612147       -1.14314478156336       -2.15621494947555
C            8.34980554486409       -0.78827348376546       -1.04794330596109
C            7.61065457510195       -0.89326235682183       -2.21436262874603
C            7.72254716169348       -0.93781135944735        0.17803627535066
H            5.88436827608693       -1.31287994024307        1.19905210891160
H            8.29556842463298       -0.86648580856612        1.09069705480785
H            9.41080856671383       -0.59338997551602       -1.09394592482806
H            8.09440261990999       -0.77811348133300       -3.17317993107187
H            5.67380945815865       -1.20657249015479       -3.06599532318102
