85
 energy: -139.917537225872 gnorm: 0.000535357013 xtb: 6.5.1 (b24c23e)
Si          -0.37930678215612        1.15869550952664        0.44885004336441
O            1.16110546070016        1.47481494817294        0.01959440920880
C            1.78889119939603        2.68271102739353       -0.32842688481846
C            2.64820626444563        2.50412537271679       -1.55470276216831
H            1.01912724334191        3.43675515677740       -0.53444211696382
C            2.95021692182123        1.24785027026028       -2.05837638617498
C            3.16608372716180        3.62596775267509       -2.19349291128103
C            3.76224278625583        1.11094756658065       -3.17084484587945
H            2.53552017935198        0.37557000295796       -1.57956067926847
C            3.98167687473360        3.48955518419826       -3.30107520223605
H            2.91825827171557        4.61084320827884       -1.82470587748927
C            4.28606658870975        2.23017742495652       -3.79195935269430
H            3.98371369654208        0.12501485331828       -3.55446230057096
H            4.37808635788550        4.36885436888191       -3.78747081721432
H            4.92204992285391        2.12456350231114       -4.65859469948372
C            2.65302676714246        3.18388965191239        0.84887569714891
C            1.85856717309226        3.32183071201208        2.04952578777844
H            3.08766253080233        4.14906071524076        0.57891908012808
H            3.45823312163383        2.46886040102163        1.03099557915534
C            1.16940259013990        3.40170085084297        3.02388376721386
H            0.55527171853035        3.47218038855062        3.87073048916640
Cl          -1.17231931026158        1.11898416453666        2.34620768444566
Cl          -1.21468465924462        3.09406788928033        0.00111106993515
O           -1.28271655102873        0.55478077653422       -0.88240983800092
O            0.09781653873607       -0.54102642640321        0.85334054270299
C           -1.23353497061454       -1.79745105663544       -1.16748418453631
C            0.17729523813550       -1.89638877052043       -1.03750373583834
C            2.15713911534037       -1.43630446060155        0.23745552635588
C           -3.27731105459194       -0.61036039410054       -0.72905409831708
C           -4.03156380634816       -1.74674876774363       -0.94221006405658
C           -2.00720099918321       -2.92260830545379       -1.52434118048763
C           -3.36368061764970       -2.91199800618415       -1.40516933624287
C            0.94515105366792       -2.71263104457726       -1.89313234792602
C            2.28278611232016       -2.87466243099659       -1.69276805270852
C            2.91654887034233       -2.25460976582301       -0.59030432185294
H           -1.48968594769010       -3.82246211846329       -1.81538349693161
H           -3.94488414779024       -3.78701585525968       -1.64829103743520
H            0.45228354869548       -3.17532841755406       -2.73255753337416
H            2.86829942643019       -3.49442428369510       -2.35327550447422
C            4.33610635046242       -2.53405251374281       -0.33494866354228
C            2.75769285884391       -0.72934228353447        1.37965819119273
N           -1.93515600045923       -0.64096833438067       -0.89197790940400
N            0.83910552034624       -1.27466351226248       -0.00060085658956
C           -3.86839140495842        0.67546643491632       -0.31151827627838
C           -5.48067152856770       -1.78180398626524       -0.70718964346989
C           -6.02852657645386       -2.86033090855375       -0.01328278299302
C           -6.33149969619441       -0.78055283438188       -1.17058464242429
C           -8.22327662601897       -1.91897217690713       -0.22659586977418
C           -7.69053026969850       -0.85136765102229       -0.92990575073219
C           -7.38729990133541       -2.92483786794495        0.22881389682788
H           -5.37752981377644       -3.63837165062122        0.35901713180172
H           -7.79532082600632       -3.76128280582643        0.77717684301512
H           -9.28492718732509       -1.96861902176522       -0.03644303827567
H           -8.33795881919960       -0.06849454071436       -1.29602566387803
H           -5.92956440788002        0.04625852641367       -1.73467985272700
C           -4.39723598620851        0.80297693912208        0.96732927726186
C           -3.89095208809704        1.75824567880457       -1.18330111771598
C           -4.96830419760293        3.08442114820829        0.49688374117708
C           -4.44705728326292        2.95677261779328       -0.77887391953694
C           -4.93936303589267        2.00939261483417        1.36852267215416
H           -4.36006927250417       -0.03417745126083        1.64775500006282
H           -5.33063104686404        2.11049013167958        2.36920737500800
H           -5.38635891845235        4.02737643409086        0.81547662256644
H           -4.45403087150283        3.79683269435700       -1.45610921199246
H           -3.46645650507049        1.65991816886211       -2.17141181390185
C            2.17409597686614       -0.76963629233484        2.64306617577902
C            3.95289906912276       -0.03459425618765        1.20366522904417
C            3.96028552437472        0.56714182451385        3.52694579959146
C            4.55092523197124        0.60278864150526        2.27441795432465
C            2.77121436693151       -0.11748869153190        3.70559761060293
H            1.25395411615811       -1.31031175861128        2.79728959250008
H            2.30224105015716       -0.14589477835058        4.67706992422543
H            4.42435419043291        1.07605313144653        4.35820644118287
H            5.47920030172212        1.13628024594212        2.12778267276356
H            4.40166346733155        0.02431404269195        0.22309338195161
C            4.77433072921463       -2.94285950232467        0.92378337050991
C            5.26202679312337       -2.43978820594012       -1.37182843609036
C            7.02421037184786       -3.11779316076373        0.10640606511431
C            6.59658910584118       -2.72284969306265       -1.14994539293603
C            6.10774525799140       -3.23143161016763        1.13945792979254
H            4.06236187391140       -3.04559285708659        1.72896949430899
H            6.43383413532422       -3.54964859362413        2.11851109745455
H            8.06658254303375       -3.33957184302868        0.27929704325490
H            7.30553953283352       -2.63395418905817       -1.95997809244535
H            4.93464344212743       -2.11836689886098       -2.34999470693926
