85
 energy: -139.912296589024 gnorm: 0.000778890346 xtb: 6.5.1 (b24c23e)
Si           0.01888771356471        0.73751297514861        0.40162981519120
O           -0.75345260597275        2.15793204962604        0.58348768066726
C           -0.71088539740862        3.39857952595863       -0.07416152049707
C           -2.10788614169618        3.83130204744429       -0.43926804534462
H           -0.09003902885308        3.32394980961511       -0.97365474778813
C           -3.11476151692865        3.79124511702714        0.51643041060713
C           -2.38595481856789        4.34114533379553       -1.69950482936616
C           -4.37319620246529        4.28380002743020        0.22412179487038
H           -2.90477752393166        3.36292684822241        1.48458526998481
C           -3.65011593644493        4.82114769724874       -1.99550445661436
H           -1.60730560189311        4.36733254843976       -2.44861837139824
C           -4.64291181565892        4.80376165901076       -1.03079056336299
H           -5.14358908095521        4.26915781590150        0.98122338263446
H           -3.85792169618490        5.21721312367794       -2.97926681723860
H           -5.62515515027142        5.19237113166368       -1.25848320402736
C           -0.10922692910965        4.45858519194669        0.87259144205310
C            1.26494171777408        4.15891014892709        1.20246848084541
H           -0.17031080111176        5.43631134510558        0.38634066592749
H           -0.70342779227567        4.47944424431982        1.78975651678552
C            2.39637214431840        3.88036031005373        1.47063918067666
H            3.38978655183177        3.63870395975303        1.69973557083583
Cl          -1.01774607402551        0.09612115206689        2.13067415212488
Cl           1.51832652854610        1.49314602965304       -0.97849319463616
O           -0.75412366764490       -0.17704477300697       -0.81633490875536
O            1.14389854360266       -0.51714372000828        0.90391778688698
C           -0.06162453011685       -2.42938601993388       -0.69454549449918
C            1.32812896069615       -2.11683410475166       -0.78344680260649
C            3.25690399394992       -0.92112522179166        0.00026676702333
C           -2.36009756326249       -1.79320317665206       -0.38907768594101
C           -2.75867308641461       -3.11514907426933       -0.31701254300216
C           -0.47506396815151       -3.77585677440069       -0.70733615735084
C           -1.77815871435092       -4.12145170280886       -0.50577192738097
C            2.16801989908541       -2.84918112689448       -1.64358921344722
C            3.50739760011439       -2.60166568923362       -1.70338275539415
C            4.08703520515721       -1.63125516607185       -0.85275692513629
H            0.28352833694619       -4.53559114963772       -0.80667110254807
H           -2.07745917447076       -5.15705843935439       -0.48544874096400
H            1.71380902878461       -3.57779477180706       -2.29566169175421
H            4.14082438582455       -3.15130589191046       -2.38133174675422
C            5.54496831948762       -1.44431046953879       -0.87000627556694
C            3.80121679836760        0.08900926338646        0.92072194917044
N           -1.06398875582428       -1.48474629355834       -0.60877340083264
N            1.93234912707048       -1.17265795656090        0.01812568511725
C           -3.32537926677820       -0.69007356037486       -0.25423970930588
C           -4.15599573276550       -3.50379456058928       -0.08161184664143
C           -4.44413485100948       -4.47414071080890        0.87627892643191
C           -5.20324626061239       -2.95432774239983       -0.81844507837414
C           -6.78385123689318       -4.30856612295876        0.37748598514097
C           -6.50532147442693       -3.35509533781868       -0.58798653640849
C           -5.74857362232087       -4.86799898621440        1.10744857772950
H           -3.63973094901433       -4.90041568760857        1.45795629225001
H           -5.95845877587651       -5.61315909078441        1.86065106560274
H           -7.80286908460190       -4.61655304122637        0.55788198664149
H           -7.30739204352512       -2.92235764080731       -1.16736258991452
H           -4.99326029672587       -2.22268326893054       -1.58345867483813
C           -4.09613888796147       -0.59738813126437        0.90012438954861
C           -3.51676307287079        0.22051108219174       -1.28846905176094
C           -5.28718496263774        1.25546225297127       -0.04751647525448
C           -4.50031111999276        1.18558326369234       -1.18413902068388
C           -5.06994377035452        0.37704921493862        1.00047512893527
H           -3.91426623193265       -1.27801515845832        1.71636560434086
H           -5.66491620797753        0.44603530106111        1.89857173815242
H           -6.06566983164847        1.99983466504053        0.02104575138179
H           -4.65273711034273        1.88557449436790       -1.99185046628872
H           -2.90911953356752        0.15941363581153       -2.17876159064420
C            3.53952394765835        0.02652597368342        2.28631592037079
C            4.65268118768661        1.07572203163696        0.42874064128879
C            5.02215099963888        1.87626437302142        2.66067939103521
C            5.26191353225459        1.96022760629287        1.29704279773030
C            4.14893785251559        0.91944940588676        3.14915038216161
H            2.87095785989793       -0.72656605148260        2.67424469834958
H            3.94341297264879        0.86321109460296        4.20758568862690
H            5.50434649330419        2.56516006466344        3.33963324710196
H            5.92454338286827        2.71974692772553        0.90779134321423
H            4.81881449273313        1.15395658193526       -0.63391688456724
C            6.29333555441889       -1.48863881245999        0.30494524712848
C            6.20623893175945       -1.26644535145646       -2.08320826214952
C            8.31351798555101       -1.14481339291550       -0.94427267538082
C            7.57940970811701       -1.11100551351886       -2.11788405085382
C            7.66613229563551       -1.33919649599746        0.26508070393905
H            5.79601599307269       -1.65411286324046        1.24886033237744
H            8.23460062223958       -1.37728943948040        1.18253598833813
H            9.38606902408096       -1.02372020075039       -0.97185987119718
H            8.07855405418089       -0.96184157874918       -3.06407908955637
H            5.63355915239298       -1.22409106242861       -2.99833038317924
