69
 energy: -105.695612418314 gnorm: 0.000467286381 xtb: 6.5.1 (b24c23e)
Si           0.37422560164783       -1.15890695485223        1.29197174046668
O           -0.80105156412998       -1.97822421817824        0.54093380505932
C           -1.08499167065732       -2.20908383413182       -0.81926988549613
C           -2.51167523764504       -1.81097797517429       -1.09734436841939
H           -0.40438313657337       -1.62001915841139       -1.43959837155380
C           -3.50157463543763       -2.07592505473626       -0.15982194087500
C           -2.85370632792329       -1.19202969446348       -2.29202850924865
C           -4.81707041120383       -1.73295145836268       -0.41838994103190
H           -3.22595719835893       -2.53804809610736        0.77596239325814
C           -4.17039248968859       -0.85334105589838       -2.55156202907997
H           -2.08504299611881       -0.97654937491836       -3.02091523449294
C           -5.15516628177670       -1.12560683484170       -1.61662552534733
H           -5.58162176423997       -1.94371838309143        0.31500157777080
H           -4.42824838979244       -0.37511350367313       -3.48568218693382
H           -6.18205479400677       -0.85924310911221       -1.81915401327840
C           -0.87209886985508       -3.70507850918604       -1.12159738647344
C            0.52522338196290       -4.05014445813357       -0.97551557892560
H           -1.21004812450464       -3.91781218733434       -2.13936159314418
H           -1.46657512007642       -4.29077834470079       -0.41617985259862
C            1.69049487221176       -4.27882128502234       -0.83065644582912
H            2.70470761641199       -4.50573526795079       -0.69029030174408
Cl          -0.38280178998910       -1.75275144847654        3.17149055884205
Cl           2.28926299166005       -1.83011033643478        1.69559590809605
O            0.98698304200139       -0.49186599247378       -0.35853998753273
O            0.04865547082290        0.47733841693561        1.70697288279326
C            1.56655724486348        1.77268208499952       -0.31122215900436
C            0.22786204003671        2.11973460280471       -0.00799211373060
C           -1.87809955487673        1.47196962908212        0.93215244330440
C            3.20503859650614        0.06881886569898       -0.58169322524824
C            4.22934544128940        0.96454127212654       -0.77325625316525
C            2.58141538275920        2.71498865283057       -0.57693996214775
C            3.87463037334738        2.33333483056798       -0.79480524110567
C           -0.43045816611619        3.23878345845982       -0.56112838202812
C           -1.77006990763907        3.42836874866990       -0.40536772615185
C           -2.55552393249005        2.48964647863480        0.32685534388766
H            2.31877694905238        3.76028291092836       -0.55101633650328
H            4.62174829832333        3.08858826748734       -0.96808028453117
H            0.15031418801766        3.91594898308578       -1.16706314863077
H           -2.24201297109006        4.28216305719076       -0.86229956581228
C           -4.05801986320781        2.65582906384218        0.41988987201796
H           -2.33582934838252        0.73018340055759        1.56508428589622
N            1.94039988109224        0.44996146041110       -0.38830539800334
N           -0.54387150002273        1.33373992759447        0.82434818979757
H            3.34299899258870       -0.99949408482954       -0.58103216025051
C            5.64705816759907        0.44922577500506       -0.92674264698983
C            5.70557825228124       -0.56172787082335       -2.08060729115003
C            6.64058578561095        1.57577900302797       -1.22120725768264
C            6.05153515422728       -0.23705192185881        0.38614854135956
H            5.35449425482237       -0.10567799568087       -3.00391130948621
H            6.73029561114812       -0.89358121676608       -2.22945784273762
H            5.09526082749612       -1.43512859777796       -1.87363306718475
H            7.63821360848588        1.15716674708131       -1.33064095862280
H            6.38786428698450        2.08913866834492       -2.14634698860591
H            6.66973736584082        2.29639943143382       -0.40766472563024
H            5.36237910358236       -1.03662399136918        0.64222461624980
H            7.05180160154918       -0.65388084725246        0.29579548438656
H            6.05011873524146        0.48171722976424        1.20227438289453
C           -4.64559558732621        2.61965853675454       -0.99789514831523
C           -4.70957282584930        1.54366523700259        1.24343724583109
C           -4.37182569575050        4.00461731130286        1.08305331701423
H           -4.41064066846816        1.67066185435906       -1.47470920836992
H           -5.72686415040690        2.72562750049215       -0.95378266265890
H           -4.24990496811134        3.42324569485577       -1.61297143681839
H           -3.98747826353758        4.83607186330053        0.49896075728070
H           -5.44776640559074        4.12707816894444        1.18087435904096
H           -3.92866761866229        4.04812118487683        2.07519797800359
H           -4.51084045255991        0.56895236795773        0.80519519406946
H           -4.35231092707324        1.55533911214696        2.26997212661948
H           -5.78694351032304        1.69181626346299        1.26135664862728
