69
 energy: -105.693846585881 gnorm: 0.000596567362 xtb: 6.5.1 (b24c23e)
Si           0.59542208799151       -0.64372824413170        0.47368711359895
O            0.58088645580867       -1.69495627745886       -0.75874860226150
C            1.10515889582026       -3.00413803352911       -0.78210205028465
C            2.58744628255660       -2.99577418810451       -0.51033509513823
H            0.60030643274879       -3.60171507543983       -0.01254068704915
C            3.39236268398544       -2.03872382930438       -1.11303802403114
C            3.15680205283094       -3.92268597589374        0.35007043907215
C            4.75007536051794       -2.00502027377068       -0.85372827545436
H            2.94049493223887       -1.30621690505879       -1.76546801201596
C            4.51662362524181       -3.89205545616193        0.60394545465013
H            2.52922844803145       -4.65599516536798        0.83432972521058
C            5.31484305442601       -2.93361749363044        0.00379140038671
H            5.36840399135729       -1.25010167024949       -1.31698319623852
H            4.95144091805517       -4.61167950803974        1.28167583781349
H            6.37462324453870       -2.90449424941102        0.21083657829271
C            0.82256836406020       -3.59668251772530       -2.17325283885689
C           -0.58585763543775       -3.85453528781974       -2.37360931913971
H            1.38098036049474       -4.53089064109840       -2.27689028464580
H            1.17232870339901       -2.88767683248525       -2.92684677175656
C           -1.75176112038487       -4.07706067245665       -2.52517872293811
H           -2.77025109984627       -4.27789911939779       -2.67375148261584
Cl           2.31741917601845        0.29505127199499        1.18052490353864
Cl           0.63475782584887       -2.07239936421661        2.09811207439128
O            0.40558679260563        0.61588220805047       -0.82128525485287
O           -0.90095415835454       -0.13502366630236        1.13181931777909
C           -0.97132128270642        2.40884753571890       -0.18696443151161
C           -2.08920029992874        1.54905901099742       -0.07770339553561
C           -2.96103889682789       -0.64733425205275        0.27049696651973
C            1.36940273026111        2.67880656680748       -0.51206104843888
C            1.33299154359920        4.03634159732436       -0.30876546034372
C           -1.05268657529465        3.81061519721813       -0.03901902980183
C            0.05600655064402        4.60513503544276       -0.08969031184942
C           -3.39487911543901        1.93422395955653       -0.45411419156448
C           -4.42653397013786        1.04454333136366       -0.50491288145689
C           -4.21130552877079       -0.32288038148407       -0.17812537130086
H           -2.01800002780855        4.24109211588849        0.17277127894191
H           -0.05235931844800        5.66629396236441        0.05452378511869
H           -3.54829233534448        2.95655848443814       -0.76029313784811
H           -5.39917783605674        1.38325331233661       -0.81621529901882
C           -5.28068490920600       -1.39463763608033       -0.27814431233394
H           -2.68629745616870       -1.63216030378752        0.61349941650342
N            0.27699614562118        1.91032498109606       -0.48180962311180
N           -1.96813986083570        0.24997771440278        0.37374842982230
H            2.27727041613711        2.13683728149033       -0.71531229191623
C            2.62887259000151        4.82353113276497       -0.29367862868824
C            3.42301715541325        4.54386839505794       -1.57714668091005
C            2.38446025159098        6.33166007312431       -0.19690388857452
C            3.44254443848371        4.37153526015029        0.92790657312465
H            2.82207246002228        4.77355323872957       -2.45434057215235
H            4.31620473250895        5.16345781188717       -1.60068994765836
H            3.73394830234962        3.50553478448570       -1.63227625467718
H            3.33843082021805        6.85347084183785       -0.21075889038532
H            1.79367152552945        6.68638763712892       -1.03861005519774
H            1.87877547525352        6.58980717699471        0.73024485471706
H            3.62073343280862        3.30005736982041        0.90613511283254
H            4.40051580849677        4.88552011355548        0.94890618347428
H            2.90588837540698        4.60438527436931        1.84469560832287
C           -6.58986935299597       -0.84975274000473       -0.85477897989428
C           -4.77438059496659       -2.51677487536061       -1.19397427418095
C           -5.55996423080634       -1.95551822679632        1.12374155348939
H           -6.43623868588459       -0.43247049667269       -1.84716735063181
H           -7.31138197745590       -1.65920741829189       -0.93849661111189
H           -7.01770600801455       -0.08804525467299       -0.20746364502916
H           -5.89393758245689       -1.16265103940971        1.78932578708930
H           -6.33848900403561       -2.71301286228648        1.07284296855693
H           -4.67053095028100       -2.40868641077952        1.55149681972777
H           -4.55416022222718       -2.12208873889774       -2.18374988843197
H           -3.87054617228333       -2.96860166942889       -0.79607144869644
H           -5.53395323451564       -3.28994092332353       -1.28868366344691
