69
 energy: -105.696000308104 gnorm: 0.000654288270 xtb: 6.5.1 (b24c23e)
Si          -0.47286078716811       -1.43871663364002       -0.38275511725563
O            1.15396072456443       -1.38034392096665       -0.30084268178029
C            2.10863790934018       -2.33132206739317        0.08788356158404
C            3.00485632870305       -1.78526391313824        1.17204117710621
H            1.59657501384173       -3.22666955578443        0.46211680559623
C            3.02580340658341       -0.43414181966038        1.48460270256840
C            3.84034708721235       -2.65221692409921        1.86752433700465
C            3.86617639551771        0.04420538353995        2.47546739465681
H            2.36914184432856        0.24086200741997        0.95740724252494
C            4.68796288727787       -2.17237403030115        2.84831486982973
H            3.81545696864122       -3.70931135121569        1.64533504932386
C            4.70432688207037       -0.82137887604017        3.15484553535719
H            3.86161847853556        1.09703803326233        2.72110743986485
H            5.33280493405896       -2.85507819204287        3.38191383691783
H            5.36208193642958       -0.44756577914195        3.92563138372422
C            2.94565135805252       -2.72069437632912       -1.15040191719044
C            2.08682499564393       -3.26332562049384       -2.18124170596894
H            3.45893678115413       -1.83213072488218       -1.53029728725208
H            3.69473476254960       -3.46000321278512       -0.85863992334998
C            1.32396318401539       -3.67791516919227       -3.00393802483446
H            0.65583452799249       -4.05462255803343       -3.71903471435496
Cl          -1.62874818167023       -2.18308570189674       -1.90442677741693
Cl          -0.74982364052340       -3.14415088546382        0.89525966702011
O           -1.22746342747046       -0.50188019278113        0.84813942752033
O           -0.42143722452624        0.06487140397053       -1.41113605187948
C           -1.70081139138110        1.77236339899080        0.31048172686658
C           -0.39008862215950        2.03779920980948       -0.15269517210287
C            1.53577665489404        1.27834275637015       -1.33520358704848
C           -3.41879494310437        0.17240365733339        0.74714447645205
C           -4.40926799219465        1.11494030392100        0.79126705039148
C           -2.68235068063825        2.77423980567201        0.46928342433863
C           -3.99127187997490        2.47082885975166        0.70324013777950
C            0.31385143159356        3.23140579410693        0.11962994990282
C            1.59904485706019        3.40946475756715       -0.29725105613920
C            2.27107323757290        2.39315867411599       -1.02667601222574
H           -2.37977694919028        3.80059386861461        0.33564529468143
H           -4.70849449642406        3.26791737842085        0.79281570252094
H           -0.17727048843202        3.98507468932170        0.71378068184076
H            2.11162907274539        4.32587063257261       -0.05481372476186
C            3.71504974247813        2.57323940116781       -1.44983208962832
H            1.90354301567797        0.45027697548224       -1.91665496788570
N           -2.12477911558458        0.48670205191617        0.58281255155969
N            0.26397008673866        1.12611085400152       -0.94804502427386
H           -3.59342372778457       -0.88415625467372        0.87474780542699
C           -5.85544338379982        0.68168220133560        0.94027202187152
C           -6.02543336924075       -0.05252837813088        2.27794087763360
C           -6.81747390267948        1.87211493945844        0.91159752034234
C           -6.21129821448677       -0.25967944336398       -0.21915010138408
H           -5.74703114097677        0.59710091993977        3.10504085119701
H           -7.06300598798696       -0.35042343128343        2.40820785538460
H           -5.40742579668303       -0.94441312290663        2.31981486666941
H           -7.84011067178660        1.51025897029661        0.98758707138332
H           -6.63836216401494        2.54354241064920        1.74810830895133
H           -6.72581570100740        2.42590824096997       -0.01975907331899
H           -5.59131389058012       -1.15097380491732       -0.21308664274335
H           -7.25136127115085       -0.56735833587017       -0.14172505646858
H           -6.07103315983526        0.24502427560715       -1.17234473897318
C            4.57116380952260        2.90039963521363       -0.21809110813474
C            4.28448565413364        1.31002981989166       -2.09913765132168
C            3.78829967093026        3.72942889686316       -2.45764641688337
H            4.51427543134015        2.08912193891242        0.50359535371812
H            5.61035030351581        3.02353473154318       -0.51379902640307
H            4.24801845704793        3.81826279344048        0.26468531885046
H            3.42602401727870        4.65613906391182       -2.02043526513877
H            4.81669832769662        3.88069769223275       -2.77663385253280
H            3.18445959203355        3.50533729808937       -3.33416934722393
H            4.22918580042382        0.46967992599515       -1.41078687574749
H            3.75590225460634        1.06209329494798       -3.01624800075826
H            5.33054837865301        1.47153832981196       -2.34973928596513
