69
 energy: -105.690300343482 gnorm: 0.000631560546 xtb: 6.5.1 (b24c23e)
Si           0.26949837268479        1.37295182478908       -0.61201999936177
O           -1.33860334472817        1.20629634403508       -0.45631839203308
C           -2.49684161931083        1.83927115463778        0.02141180579765
C           -2.83612237846704        1.38626929147900        1.42206792120329
H           -3.29237320668613        1.49456726334770       -0.65974677071247
C           -1.84828713328694        1.17305290368385        2.37273958810141
C           -4.16766734938869        1.19327356646393        1.77153236861332
C           -2.18876571265728        0.76698045178581        3.65148048152669
H           -0.81294682305550        1.32575031118720        2.11376826900549
C           -4.50647615779962        0.79403332032408        3.05151931841764
H           -4.94278962911409        1.35824133151972        1.03578078064297
C           -3.51604099876181        0.57714833656563        3.99474090480434
H           -1.41197785776160        0.60397062002006        4.38397810596830
H           -5.54497883483132        0.64910858285376        3.31198447039695
H           -3.77967004584763        0.26293088367245        4.99408195258336
C           -2.46971026944095        3.37773506719821       -0.04922557480632
C           -2.16679078382867        3.81512282768957       -1.39400658068276
H           -3.45267195916992        3.74680373551006        0.25591931787317
H           -1.71405186951432        3.76543387828875        0.63534673750748
C           -1.89996631949636        4.11193724382436       -2.52189061164121
H           -1.64913977571236        4.40687353777021       -3.49635450933218
Cl           1.18340061696108        2.12584747563173       -2.28229402488204
Cl           0.62565342784473        3.12253038203075        0.58637332881152
O            1.18707593528009        0.54240043490402        0.59329510716808
O            0.25190416715623       -0.20520664311246       -1.55380462439803
C            1.72561963971270       -1.74113610465664        0.17657945842452
C            0.39579392029752       -2.08425105548121       -0.16393937413380
C           -1.63031823166565       -1.49765113342007       -1.25807166437017
C            3.39674431025317       -0.04695523198506        0.38062549910088
C            4.42698686200064       -0.94511768618220        0.42811350091618
C            2.75712908706961       -2.69033495289408        0.33500631749169
C            4.06397971939116       -2.32017935013321        0.45848790999233
C           -0.24102634852898       -3.26768127818139        0.26497215205608
C           -1.54817633286779       -3.52428915455024       -0.03069637765434
C           -2.30132698897858       -2.60602096118815       -0.80165579129256
H            2.48999177514972       -3.73426502483007        0.29296573247375
H            4.81981777613677       -3.08008242345124        0.55258837020680
H            0.32093896828987       -3.94685069840021        0.88569452217062
H           -2.00299445346005       -4.42569496935439        0.34198370602612
C           -3.76508316950430       -2.79930361720299       -1.15115472602902
H           -2.07877882213296       -0.74632891236929       -1.88666668968685
N            2.10921651215504       -0.42274516262354        0.32349755383880
N           -0.34724253225354       -1.26081035544833       -0.97794366997301
H            3.53413263917431        1.02202312637016        0.42236699435410
C            5.86000868630143       -0.44769017600528        0.45987664114989
C            6.06748895765916        0.41100785592607        1.71601799562249
C            6.86781781192994       -1.59981238882795        0.48737104831939
C            6.11849569295928        0.39632324238755       -0.79635285459739
H            5.85117703553942       -0.16878213658818        2.61101337799136
H            7.09918893552671        0.75055347998169        1.76677956465104
H            5.42238860334203        1.28456818832827        1.70922559654768
H            7.87713122639903       -1.19506631330976        0.48720463145419
H            6.75037873142608       -2.20348973875836        1.38437186057144
H            6.76091854240060       -2.23424185484073       -0.38940216697056
H            5.45711436631190        1.25658100846579       -0.84020537982442
H            7.14518098573340        0.75457047466700       -0.79829258309225
H            5.95998013444902       -0.20069926801931       -1.69182806450758
C           -4.36002136116777       -4.03516279230323       -0.47131307488238
C           -4.55771384339729       -1.56701833340440       -0.69330919063972
C           -3.89530904677201       -2.96638632635427       -2.67221661256118
H           -4.27998494309345       -3.96027748938253        0.61063120018072
H           -5.41434805939316       -4.11449412052793       -0.72595402854621
H           -3.86760916296810       -4.94490246023704       -0.80659993079922
H           -3.32694755712845       -3.83122067776260       -3.00783406540200
H           -4.93816661207021       -3.11324935737013       -2.94308462759701
H           -3.52553311668347       -2.09009269112740       -3.19699504295605
H           -4.41042178227437       -1.39393623938723        0.37079170752987
H           -4.24430455067133       -0.67635836677819       -1.22950955928161
H           -5.61906145566425       -1.71758969889185       -0.87711323684512
