69
 energy: -105.696007814671 gnorm: 0.000560535015 xtb: 6.5.1 (b24c23e)
Si           0.41067435238864       -1.31346526911956        0.70817430138294
O           -1.21253401717403       -1.23013035084092        0.58652493412862
C           -2.18878274773673       -2.21252626297258        0.36624210650874
C           -3.05274686826438       -1.85897369692505       -0.81926918089894
H           -1.69757307414969       -3.17542639263984        0.17750196493726
C           -3.02477386219829       -0.59373761812382       -1.38665781818096
C           -3.90607127730069       -2.81893726851285       -1.35194618825740
C           -3.83436907798834       -0.29117668496345       -2.46822430656617
H           -2.35431288219364        0.15099102043776       -0.98608259187513
C           -4.72270460900127       -2.51299684371325       -2.42424555859744
H           -3.91909303624892       -3.81345300909657       -0.92974721979199
C           -4.69009974658627       -1.24678057403649       -2.98564195134278
H           -3.79161417265797        0.69390729992922       -2.91161674660700
H           -5.38143196610527       -3.26676883465428       -2.82979619521866
H           -5.32344829551225       -1.00987125272113       -3.82778276805720
C           -3.05242590818184       -2.33886953269593        1.64033416301982
C           -2.22335075308804       -2.70856808327356        2.76762646750066
H           -3.82398082414148       -3.09458084533115        1.47789533011042
H           -3.53787155592160       -1.37901828504954        1.84096172095774
C           -1.48141521356027       -2.99367769656117        3.66163582041126
H           -0.83729567186948       -3.24655290455432        4.44897528493350
Cl           1.51394069450107       -1.77947627147407        2.37200865293946
Cl           0.65647523249771       -3.23989958749151       -0.21159956144604
O            1.20906400734701       -0.65620593384707       -0.66644511240466
O            0.38865851024503        0.36385907358760        1.42321558221859
C            1.71548429987129        1.67353428005907       -0.58832070183890
C            0.40674297156303        2.04833213370135       -0.20139976007892
C           -1.53946552185976        1.58018153054924        1.09342121498887
C            3.40970949459403       -0.00704581425586       -0.68048344481956
C            4.41563515038384        0.89227892540092       -0.90478510299363
C            2.71450234138836        2.60822102877811       -0.93587923635251
C            4.01943446419116        2.24458396743711       -1.09309853818558
C           -0.27214204251654        3.17481323219898       -0.71594289289352
C           -1.55523841407259        3.45785087303296       -0.35449221042921
C           -2.25017895951685        2.62438840095636        0.56120535985874
H            2.42833317114942        3.64498761875115       -1.01322634443056
H            4.74994611484366        2.99678019311132       -1.33426724574248
H            0.23634919691285        3.78257128633660       -1.44682570139325
H           -2.04862416024757        4.31484836471723       -0.78273479648061
C           -3.69141497025508        2.91538569382067        0.92806447644063
H           -1.92687100613298        0.89336860624773        1.82633319390835
N            2.11988813196678        0.35306804678748       -0.59252599621861
N           -0.26993757506441        1.32744795005297        0.75433210347720
H            3.56716573005590       -1.07040156698112       -0.59310576582475
C            5.85522979652815        0.41655800029254       -0.95629318055896
C            6.01813970765564       -0.56509265421111       -2.12556585590092
C            6.83608071754841        1.57544289405996       -1.15193418895399
C            6.19234897460266       -0.28794801523353        0.36533472813136
H            5.75581896173275       -0.08284306303322       -3.06478230898322
H            7.05059594423379       -0.90043899321844       -2.18721600907926
H            5.38367289263876       -1.43727011389806       -1.99951276604329
H            7.85318597973354        1.19083840714941       -1.14732370361563
H            6.67244338976189        2.07345491933768       -2.10467824594057
H            6.74807391375956        2.30146877778491       -0.34715537625376
H            5.55964204522065       -1.15524782540059        0.52713431647424
H            7.22808890343445       -0.61895579757047        0.35570401653851
H            6.05584226570162        0.39312252700689        1.20224845468542
C           -4.53741965855846        2.99249237999257       -0.35077678482988
C           -4.28680965122788        1.82714068720479        1.82378128266604
C           -3.74535778823488        4.25799977525557        1.67107348644468
H           -4.49294908493751        2.04761126359991       -0.88677936970952
H           -5.57508077601700        3.19274179887552       -0.09463523582633
H           -4.19566522241843        3.78342475325798       -1.01215005739344
H           -3.36969197249454        5.06698993128651        1.05027128455096
H           -4.77082307014067        4.48848668127480        1.94949975490971
H           -3.14382208548244        4.21317341452345        2.57614311026613
H           -4.24968274532089        0.86109070393300        1.32551378968445
H           -3.76288355806375        1.76437685320195        2.77429252150754
H           -5.32908153401097        2.05882774847314        2.03131859642333
