69
 energy: -105.696501906782 gnorm: 0.000577155727 xtb: 6.5.1 (b24c23e)
Si          -0.42112694251059        1.21110296307785        0.71145028483826
O            0.67143033465623        1.66555335419522       -0.38856484440771
C            1.73376777003499        2.58259719014822       -0.33658653957350
C            2.98400807940102        1.91702736723874       -0.85358290692977
H            1.88217275852213        2.91437760912379        0.69862444402864
C            2.90084534489329        0.98619145029382       -1.88115814041369
C            4.22787089110914        2.24511777605614       -0.33080036933010
C            4.04749356101111        0.39903858906348       -2.38573667404648
H            1.92874588081587        0.72480626471756       -2.27072656676339
C            5.37397607229612        1.65490641382164       -0.83483983667110
H            4.29412455191501        2.96171214938774        0.47498165446631
C            5.28675832592932        0.73333384779450       -1.86522411921646
H            3.97487566419215       -0.31408265035156       -3.19489429593391
H            6.33751614975002        1.91289105779709       -0.42082250510635
H            6.18193457610242        0.27438929094557       -2.25851325223095
C            1.38813063344849        3.80575027428261       -1.20951089681515
C            0.24981212808890        4.51018104910391       -0.66036580765887
H            2.25556703185865        4.46947907115199       -1.25174968635230
H            1.15263819116370        3.45832231009461       -2.21889165993390
C           -0.70025634376963        5.05225940740059       -0.17624744828415
H           -1.53379946303290        5.52881978626444        0.24525749709721
Cl           0.45535817425176        2.12915141080630        2.46272552487017
Cl          -2.23565766161920        2.14942307637691        1.05303356860304
O           -1.14567912769332        0.28388056299751       -0.68356020409944
O           -0.12129683132302       -0.30201610112422        1.47817940515514
C           -1.78018032013307       -1.90672404720952       -0.14620091577944
C           -0.43466650780037       -2.24011411733424        0.13929433658429
C            1.73334094723636       -1.50504903407017        0.83765623646332
C           -3.39160473981903       -0.22253206938362       -0.61765722057656
C           -4.44979688171374       -1.09596994295093       -0.55284533096285
C           -2.83484957035269       -2.84303739918632       -0.15662406136209
C           -4.13157140121183       -2.45931524284471       -0.34576671468748
C            0.16196638194393       -3.46710319411907       -0.22233851942723
C            1.50238175877027       -3.67335068407453       -0.09581318638780
C            2.35044203573852       -2.64460619787597        0.40974750093546
H           -2.59554881146043       -3.87459802909470        0.04634518523835
H           -4.90859030801743       -3.20372369308097       -0.31896417575975
H           -0.46880987512396       -4.22383983069343       -0.66097731533287
H            1.92633810797033       -4.61427815598370       -0.40525758842439
C            3.85041810912373       -2.84578858717878        0.47013057543225
H            2.24600870319400       -0.67510235780349        1.29452258821996
N           -2.12366369642117       -0.60903317225538       -0.45411647253972
N            0.40122314977946       -1.33990233093095        0.76552690738982
H           -3.50465541424348        0.83113805720139       -0.81087914180939
C           -5.86249191628449       -0.56167339784243       -0.68907715539468
C           -6.00297706236044        0.17865555640148       -2.02642155883584
C           -6.90760018812595       -1.67890264463230       -0.64124397460777
C           -6.12467509817205        0.40895662375098        0.47165607680315
H           -5.75828225974094       -0.48335248764054       -2.85435144189178
H           -7.02654527194828        0.52317357557617       -2.15255295054239
H           -5.34778233589573        1.04293810620937       -2.07021321750823
H           -7.90101284238461       -1.24744993907225       -0.73855092868281
H           -6.76604950872731       -2.38363001465071       -1.45763319477626
H           -6.86742041514595       -2.21308365063520        0.30485360795145
H           -5.40060227861609        1.21828405154449        0.48207029137846
H           -7.12114806098643        0.83499739862731        0.38228134730346
H           -6.05798077546237       -0.11488243330625        1.42232300177108
C            4.37196543233303       -3.09536506375140       -0.95171693574297
C            4.57232704148206       -1.62476714751064        1.04358299281706
C            4.15667121527852       -4.05918563468809        1.35979187390622
H            4.14611871207863       -2.24026360799891       -1.58341866710093
H            5.45000836786561       -3.23480390194072       -0.93243667710379
H            3.92139226489743       -3.98086235486300       -1.39143569780159
H            3.71848808097912       -4.96880286869698        0.95880224450607
H            5.23191894164554       -4.20323852429996        1.43143728705671
H            3.76279578821674       -3.90089312715325        2.36097967527443
H            4.38156430139346       -0.73924484395922        0.44307040225373
H            4.26622977596109       -1.43451594484944        2.06912837262268
H            5.64469167476880       -1.80575021641395        1.04201491384015
