69
 energy: -105.696506926123 gnorm: 0.000820362168 xtb: 6.5.1 (b24c23e)
Si          -0.46283842692933       -1.23951639604993       -0.69632578600624
O            0.66588458597447       -1.70831643174030        0.35968578572534
C            1.74855325172744       -2.59585057797693        0.25574998741848
C            2.98394255127269       -1.92976174870688        0.80744855563891
H            1.90185010603704       -2.86659754253645       -0.79670556303603
C            2.87571879064458       -1.01204263108020        1.84420978783828
C            4.24009439566846       -2.24557090613734        0.30610904536781
C            4.00882041714986       -0.42314583085108        2.37683691536883
H            1.89493079492594       -0.76222592779664        2.21919434534681
C            5.37259197977681       -1.65490605727028        0.83921832089279
H            4.32689662174791       -2.95277452127543       -0.50612484051001
C            5.25994928656280       -0.74432537338810        1.87698238223150
H            3.91564277601044        0.28113539147641        3.19163575681342
H            6.34577394509501       -1.90372557022648        0.44234582581789
H            6.14468297612639       -0.28484672765766        2.29270080431189
C            1.43411784018761       -3.87444070182705        1.05832401156643
C            0.32265051186350       -4.58244461537308        0.46060571397080
H            2.32106897765901       -4.51312577421301        1.07432580797981
H            1.17926192622144       -3.58853318080971        2.08217272405017
C           -0.60167567836010       -5.12508100556397       -0.07002620637847
H           -1.41453710828402       -5.60384173361380       -0.52783041217995
Cl           0.36459877179473       -2.11941173401067       -2.49113479715441
Cl          -2.28170401376503       -2.18084948807836       -0.99295821446434
O           -1.14594670025064       -0.34322912189353        0.74120375663375
O           -0.20002556310838        0.29315072005039       -1.44006116459120
C           -1.77124701724222        1.86917707755099        0.28903358757030
C           -0.43345072936744        2.19601537641763       -0.03701451892584
C            1.69402417679839        1.45959857698998       -0.84993778165007
C           -3.38831887628016        0.18570769004324        0.74594691887599
C           -4.43715763566453        1.07282681720078        0.74572535069651
C           -2.81306673213532        2.81629855101391        0.37029592241161
C           -4.10789424368705        2.43992983842687        0.58563449206367
C            0.19276402647879        3.40526853894637        0.33419441458809
C            1.52845064894101        3.60225207517711        0.15312137479361
C            2.34199244860849        2.58074004054501       -0.41900741725107
H           -2.56790051614075        3.85246798573227        0.20067018404656
H           -4.87569149026797        3.19372908605792        0.61454876455313
H           -0.40911328343498        4.15538187044766        0.82202464505626
H            1.97561466210129        4.53022691004748        0.46889661507261
C            3.83875395075413        2.77226839307176       -0.55044822301641
H            2.17658579484370        0.63784093896736       -1.35195951236101
N           -2.12081144819529        0.56496826198225        0.56251309503891
N            0.36462958434748        1.30610360356527       -0.72399551907607
H           -3.50824915141882       -0.87370247853439        0.90032543509353
C           -5.85303804067976        0.54959504331343        0.89151740865319
C           -5.96938312227577       -0.27223289406035        2.18271080590687
C           -6.88260844487494        1.68121385498255        0.94349854157364
C           -6.15923811928601       -0.34259753961827       -0.32038511596017
H           -5.68790452965047        0.33058096601721        3.04351591248309
H           -6.99570105780364       -0.60530228693389        2.31705830111127
H           -5.33143054240589       -1.14989026975292        2.15188416357642
H           -7.87845724326706        1.25784834378111        1.05092039793427
H           -6.70243436017535        2.33618825831379        1.79303022482460
H           -6.86735372821155        2.26811414985278        0.02836049228609
H           -5.44929623124877       -1.16118123895824       -0.39678620851703
H           -7.16061576015097       -0.75742281638978       -0.23376815994727
H           -6.10509306518552        0.23817884099120       -1.23840967450122
C            4.43438594801644        3.00633310321941        0.84450894123786
C            4.52267702024552        1.55136891951720       -1.16930296280415
C            4.10588648370578        3.99146286720739       -1.44516687869301
H            4.23911216850945        2.14585220279344        1.47956415599489
H            5.51054275358107        3.14215273966337        0.76924255877498
H            4.01187140275352        3.88958205741790        1.31569711502277
H            3.68997712365450        4.89886537330487       -1.01603576902237
H            5.17692694189682        4.13301337687069       -1.56761191701901
H            3.66347181912830        3.84245230393151       -2.42750093055232
H            4.35436460357965        0.66197380640627       -0.56735245014288
H            4.16626534063401        1.37223230014504       -2.18053392423535
H            5.59518045472045        1.72501287088452       -1.21842839821392
