57
 energy: -93.032199903065 gnorm: 0.000729996530 xtb: 6.5.1 (b24c23e)
Si           0.77837228148346        0.57897536760165       -0.41197292539457
O            2.11941524802574        0.07778232828872        0.39415730976483
C            2.86021807293145       -1.11256313341160        0.35258121874959
C            4.26737218837298       -0.82844778567748       -0.11595473621813
H            2.38849221785852       -1.82374784840962       -0.33719312051573
C            4.86749827503746        0.38999229712980        0.16807357382195
C            4.98109651468859       -1.79345546723306       -0.81367035090836
C            6.16415542481873        0.64178611067389       -0.24326908370699
H            4.30244767601379        1.14120534328067        0.69836289462373
C            6.27945751406395       -1.54274543297770       -1.21975554680778
H            4.51352767517865       -2.74005266577409       -1.04516301060530
C            6.87375165793643       -0.32472598966359       -0.93509752802188
H            6.62161725929398        1.59527238295889       -0.02277913422026
H            6.82722806482617       -2.29756920763698       -1.76522055940196
H            7.88621818623372       -0.12832090776578       -1.25665301484987
C            2.90425710243059       -1.72710539810730        1.76855835365484
C            1.64159647768837       -2.32730850838773        2.13413266674496
H            3.69131297937627       -2.48559412573206        1.80129987104667
H            3.14724808729129       -0.93040526250130        2.47557656756380
C            0.59332322734844       -2.83581006862034        2.40893553593520
H           -0.32342739083244       -3.27073573483187        2.67563645083457
Cl           1.12426618189017        2.45547423390901        0.43236599790121
Cl           1.02400906079148       -0.64928041941965       -2.09801553096085
O           -0.52219227007935        1.31690614151981       -1.49573665016002
O           -0.43982001883931       -0.10602271593000        0.58555585266949
C           -2.52870869076506        1.48299811480068       -0.29846118528406
C           -2.61831065003357        0.04969548075771       -0.35399999318094
C           -1.44587757059295       -2.03759527000142       -0.16385704945578
C           -1.30680892249005        3.42180272856985       -0.97247518557328
C           -2.21774509145221        4.26871548909106       -0.40200378131144
C           -3.45329742180004        2.32166679278479        0.35815025999770
C           -3.29652867233551        3.68649477217461        0.29719357544840
C           -3.72988602782405       -0.65649224817175       -0.85837080381644
C           -3.67835632547227       -2.02655831328312       -0.97452679335526
C           -2.50970741993621       -2.75022372012948       -0.63010064592935
H           -3.98672185168035        4.32575974150836        0.82621413221965
H           -4.51744992049089       -2.55755106990421       -1.39628335913028
H           -0.49909814073359       -2.47573001428264        0.11033187889188
N           -1.46310571016748        2.09295850346676       -0.92782706291431
N           -1.52139481692496       -0.70683005269395        0.01849329521768
H           -0.41968794342582        3.76070708904169       -1.48049771248219
C           -4.53749141266563        1.74833460991524        1.22105411680160
H           -5.51746432840324        1.92190211339140        0.78009530629548
H           -4.40036807068147        0.68258631326563        1.37394933630336
H           -4.52170178442296        2.24371470910461        2.19009892530467
C           -4.93323692342760        0.06540417518030       -1.38702304463362
H           -5.24874488044460       -0.39520360311838       -2.32070311188128
H           -5.76363775536664       -0.00815949279347       -0.68692612578079
H           -4.71998841579014        1.11377100061368       -1.57002355773238
C           -2.05430282186381        5.75174859632812       -0.46457082893034
H           -1.91854715149424        6.15470223997832        0.53799633477272
H           -1.18930722591246        6.01801191448418       -1.06381704017874
H           -2.94158563058592        6.21537911872473       -0.89385818724850
C           -2.44355495479067       -4.23121658445465       -0.81298463726291
H           -2.62302212983159       -4.49037556203239       -1.85533048220651
H           -1.46859565005620       -4.61138984128993       -0.52230412854413
H           -3.20892238195348       -4.72157126430536       -0.21198754596646
