57
 energy: -93.035025199516 gnorm: 0.000769728106 xtb: 6.5.1 (b24c23e)
Si           0.68623764118827       -0.34721248210919        1.35511376840714
O            1.46301613132793       -1.49889179888277        0.51765246396295
C            1.90499061954361       -1.48940232278834       -0.82149834716973
C            2.89109954654771       -0.37528405520388       -1.05165309717293
H            1.03806275434320       -1.35060771247692       -1.47914476198339
C            3.86800131813201       -0.11223521660922       -0.10084435497865
C            2.82076470596420        0.41295163227716       -2.19106330170266
C            4.75691295561100        0.93140749494451       -0.28264863020465
H            3.91093798454178       -0.71520645802571        0.79366794600052
C            3.71321798085617        1.45444766460460       -2.37496620438909
H            2.05598417332534        0.21652977677721       -2.92931177195900
C            4.68133186184590        1.71675111644068       -1.42040408711868
H            5.50605518884283        1.13489226435665        0.46772491156150
H            3.64720698116390        2.06797721307120       -3.26221969380642
H            5.37222352064389        2.53514996379836       -1.56114330874451
C            2.54496734946087       -2.86063591279625       -1.10146453994611
C            1.54223168714391       -3.90285675254943       -1.10741627539537
H            3.05154896763713       -2.82863559422936       -2.06982021887435
H            3.27890262907521       -3.06623800769378       -0.31930428732302
C            0.67368129845247       -4.72599585814509       -1.11237797553479
H           -0.05670358238427       -5.47832758313502       -1.11101977501389
Cl           1.46175623427385        1.45463011342446        2.01880882269952
Cl           1.06456610555116       -1.36826760499786        3.16211061374497
O            0.22959385798761        0.48157013898079       -0.29251625121129
O           -1.00457188049264       -0.50931008378023        1.62023372924101
C           -1.96236801883412        1.29389887505251       -0.22248022269942
C           -2.39542274405395       -0.07362181473741       -0.25715254034599
C           -1.96852612566701       -2.30356621329351        0.53487450966799
C           -0.07998982849891        2.76169493605782       -0.28658812611662
C           -0.87508858481883        3.87692167860208       -0.26610153132149
C           -2.81015662107049        2.41792178353355       -0.12452692548725
C           -2.26785629003554        3.68073685858763       -0.15437945753146
C           -3.30058118369558       -0.61099526827280       -1.19551814118313
C           -3.53238115205882       -1.96651219037405       -1.22349150961281
C           -2.84689282417415       -2.85060283846669       -0.35118004092783
H           -2.91365004203650        4.53952946013709       -0.05217120791313
H           -4.20014355945490       -2.37703302805285       -1.96480331743774
H           -1.37310985098903       -2.87696836246257        1.22719299641241
N           -0.60330261249605        1.53048857376246       -0.26452342809047
N           -1.79937764474959       -0.97046614917209        0.61333607957149
H            0.99680967219801        2.79989801935287       -0.31751275750238
C           -4.27815939058399        2.25409410245879        0.13198852677958
H           -4.86264967049833        2.55728932802684       -0.73483610906058
H           -4.52219068218540        1.22693251135825        0.38431643832106
H           -4.56854853629424        2.89425943853283        0.96297042659564
C           -3.93116851700047        0.25233130101028       -2.24708596999371
H           -3.92655651992460       -0.27409441779520       -3.19911775618761
H           -4.96824858059052        0.46763409139271       -1.99590012126469
H           -3.39705036734052        1.19024896820569       -2.36342794314888
C           -0.29366771992727        5.25184192232408       -0.30859164553000
H           -0.54127198777871        5.79215296463094        0.60354085519665
H            0.78690594281276        5.20958782239811       -0.40380634143400
H           -0.70269490331846        5.81173324914723       -1.14844174983182
C           -3.06711430250998       -4.32547369503095       -0.43453715037171
H           -2.43828916955971       -4.84724724235021        0.28054716246364
H           -4.10947182064766       -4.56324024047984       -0.22422027917398
H           -2.84149839480188       -4.68404935933553       -1.43810609593035
