57
 energy: -93.035887951946 gnorm: 0.000971477523 xtb: 6.5.1 (b24c23e)
Si           0.40321065316418       -1.55825435674372        0.80118402888527
O           -1.05706394724463       -1.79279014154030        0.14444948249430
C           -1.59191803246410       -1.51406940289930       -1.12964892409078
C           -2.83141183179439       -0.67284653541398       -0.96649597278215
H           -0.85052201763514       -0.97797687635399       -1.72723155462017
C           -3.74028548825211       -0.96789140177696        0.04184457381019
C           -3.08359211054815        0.39202619676222       -1.82005602121196
C           -4.89366201294498       -0.21814524361736        0.18235008875961
H           -3.52624948750073       -1.78230970321266        0.71709778601506
C           -4.23986228796266        1.13971988812442       -1.68105107814009
H           -2.37265259287489        0.63240024172673       -2.59807027661949
C           -5.14961038821553        0.83233905552989       -0.68362410457047
H           -5.59853363459739       -0.45621139934716        0.96544556445727
H           -4.43140198519952        1.96355867510909       -2.35351782193724
H           -6.05607506175285        1.41138648379951       -0.58012796549632
C           -1.92629049564695       -2.84822526686752       -1.82398900625743
C           -0.71208190054678       -3.59220224328010       -2.08073328705452
H           -2.45011297424638       -2.64374398234086       -2.76164656271196
H           -2.57809273152491       -3.43032397844719       -1.16801011892447
C            0.32206268607944       -4.16682976340679       -2.25805716834600
H            1.21656881090021       -4.69319409042399       -2.40787745436622
Cl          -0.22751020636057       -2.57046810819151        2.55113178882121
Cl           2.11778320548079       -2.67990282851970        0.58995254540464
O            0.91996707513156       -0.54147413409268       -0.72325099305534
O            0.60869176518548       -0.09674127856849        1.69791036061689
C            1.89574398314690        1.48838145016727       -0.11325041440064
C            0.60152113033190        1.87348384799494        0.37385228136002
C           -1.30703096455975        1.19505738747895        1.66685014699485
C            3.17914275763275       -0.26957129403993       -1.09702775381021
C            4.32233193043849        0.48468721683568       -1.09143929114057
C            3.06113962202294        2.28066483140629       -0.05203305903001
C            4.24537468786612        1.78223628692636       -0.54186306916429
C           -0.11656795963318        3.01579083678329       -0.03246923522744
C           -1.38718706446544        3.23257702585087        0.44688100667669
C           -2.01090687942908        2.31068995932048        1.32578207478087
H            5.14367952546973        2.37599149702463       -0.46805644321628
H           -1.94604705813761        4.09080652874762        0.10809961942709
H           -1.69226859440622        0.40884335878948        2.29592169540927
N            2.02037898844216        0.21820667029861       -0.63838184276034
N           -0.04311579124271        1.01080792887422        1.24394019128275
H            3.13839105092354       -1.28443188455265       -1.45712730965802
C            3.05378062861164        3.61019221889116        0.64007472977026
H            3.12588738698423        4.42327503136967       -0.08036934609908
H            2.15334886451936        3.74112017105924        1.23223376671458
H            3.91762512268756        3.67783965497160        1.29836964944430
C            0.43828326677859        3.94528696827779       -1.07032244700193
H           -0.34377670920769        4.19926227732726       -1.78286298319800
H            0.78021423051099        4.87252809233522       -0.61369169121231
H            1.26629266694598        3.49170779857289       -1.60646381169567
C            5.61615260207488       -0.05706362737687       -1.60445741792803
H            6.33373133866914       -0.14627225677290       -0.79061352826340
H            5.47424207972630       -1.03744958275122       -2.04729520152900
H            6.04125592741727        0.61192359232490       -2.35041645576090
C           -3.39279863687682        2.55716934941449        1.83393092810080
H           -4.07294342564663        2.74100638239941        1.00434478845142
H           -3.75266522687173        1.70275013605344        2.39883646245222
H           -3.40305848936504        3.43548133999853        2.47936205115120
