57
 energy: -93.038442120024 gnorm: 0.000803308669 xtb: 6.5.1 (b24c23e)
Si           0.50162847994778       -1.01133520215859       -0.05532184585615
O            1.44960242124651        0.30276095459916        0.10893916951973
C            2.61261325987746        0.50073609802480        0.87226731853605
C            3.82048721316863       -0.10207506227013        0.20150881232188
H            2.47871841449754        0.04259689304005        1.85887877076427
C            3.89204421559928       -0.17643072206813       -1.18182495087784
C            4.87850371998196       -0.57681902213515        0.96439441414926
C            5.00405398322294       -0.72321504546209       -1.79653907649717
H            3.06089989075079        0.17431948702937       -1.77520155964555
C            5.99299574536909       -1.11719647262731        0.34930047448002
H            4.81876080936173       -0.53526333827552        2.04220634075522
C            6.05825574474526       -1.19122198150919       -1.03205645567907
H            5.04474647436423       -0.78656561651993       -2.87399762386898
H            6.80925152676573       -1.49077168899106        0.94998636119787
H            6.92603092467013       -1.62046678143149       -1.51105750154492
C            2.79942753287915        2.02172505547634        1.04113660642498
C            1.66756056339574        2.59797909600949        1.73304297491539
H            3.71525805938778        2.20366093147018        1.60855570194540
H            2.89822727995826        2.47922883254767        0.05306744049166
C            0.70033608596408        3.02875454208723        2.29092837699691
H           -0.12982683547200        3.41843202672094        2.79933393129939
Cl           0.65765810571330       -2.42426591445347       -1.53693657256400
Cl           1.45915713579318       -2.23206307930771        1.43769378996991
O           -0.87858128057098       -0.95879938957713        0.97120869828705
O           -0.46109651484599       -0.07882377918900       -1.30714836501346
C           -2.82842752698272       -0.04491314211077       -0.04138835526688
C           -2.12043272649670        1.18623232414463       -0.24350468945282
C           -0.17713893969033        2.20435747845439       -1.18023817447511
C           -2.64375235363212       -2.37034222638261        0.53387899207857
C           -3.93592109093277       -2.62455629320861        0.18416774237812
C           -4.16337059036360       -0.28016573738908       -0.43358278972372
C           -4.70488498293917       -1.53713807692188       -0.30207313918258
C           -2.53654811501490        2.45564741007486        0.21435460391819
C           -1.77727693833631        3.56399615668609       -0.07492138669507
C           -0.57553742169953        3.45908904292409       -0.80821094888097
H           -5.71506967490452       -1.71949346133108       -0.63406752414199
H           -2.07995271633642        4.53018982384870        0.29930742332094
H            0.74476352913051        2.00179633548266       -1.69916510865803
N           -2.13375172868617       -1.12614433560565        0.47278385181812
N           -0.91971483615310        1.12473788389139       -0.91738737492813
H           -1.95875828763850       -3.12187251233481        0.89279900783407
C           -4.97341979718461        0.78713071421180       -1.10689213747322
H           -5.70739320592573        1.20504984753634       -0.42009048087735
H           -4.34271218489813        1.58818148815067       -1.47917304861553
H           -5.51682831126091        0.35316808018161       -1.94340046079303
C           -3.72933948747368        2.59755282347695        1.11187838109267
H           -3.46848563543827        3.22562534105597        1.96157796061990
H           -4.55377042716537        3.08103064047388        0.59065803622782
H           -4.06092737213773        1.63243272367779        1.48191900696228
C           -4.52068258400323       -3.99626564166222        0.26562429876847
H           -4.84775794333718       -4.32576719517896       -0.71962276231992
H           -3.79110942995587       -4.70454758509174        0.64620097690714
H           -5.38993311297479       -3.99733205987310        0.92228730881405
C            0.25941349623011        4.66395531791665       -1.09497532096202
H            0.76201293470926        4.98727960183133       -0.18295107894953
H            1.01457728192820        4.44285455784797       -1.84394892634451
H           -0.36076277620667        5.48557885419109       -1.44827911350692
