57
 energy: -93.038417820020 gnorm: 0.000509708591 xtb: 6.5.1 (b24c23e)
Si          -0.29260793740830       -1.54736936681947        0.35110933216240
O           -1.64562740793058       -0.65910526301901        0.54983632515685
C           -2.87515026180827       -0.68081004485525       -0.13391523882554
C           -2.72031735689901       -0.14963865509617       -1.53608668632206
H           -3.24714949254899       -1.71140108463119       -0.16391906293246
C           -1.93687979583653        0.97458557929208       -1.75973890794002
C           -3.34481263697367       -0.76801242502158       -2.60904738216994
C           -1.76960077609125        1.46783161642296       -3.04043333540277
H           -1.44458037856297        1.45420772584120       -0.92568695374987
C           -3.18376736625969       -0.26909656096367       -3.88924666191589
H           -3.94051996340268       -1.65252782125545       -2.44125346363699
C           -2.39481808072422        0.84737123738114       -4.10819707040611
H           -1.14864593357745        2.33715530914264       -3.20533020651003
H           -3.66638336285427       -0.76084304717152       -4.72082846702652
H           -2.26211056884397        1.22966936439721       -5.10989511551014
C           -3.85865597800240        0.20612248681455        0.65549882840293
C           -3.91183735570658       -0.19079581835268        2.04591252779533
H           -4.84974478729830        0.12196839401331        0.20336555119045
H           -3.52720730520823        1.24636348120664        0.58892740082233
C           -3.89830990468645       -0.52137663116265        3.19594555227689
H           -3.91306173806323       -0.82217585077490        4.20068271915954
Cl           0.35260505990500       -3.07408791575596        1.55680221716502
Cl          -1.05178761177397       -2.83710722519370       -1.19053016956690
O            0.78606651996486       -0.90083172063190       -0.82387665937953
O            0.50065052886316       -0.47022119665338        1.60575948039442
C            2.37023779915823        0.65169519118795        0.04175117670313
C            1.29127166648371        1.45793613194163        0.53674371058841
C           -0.65823660216640        1.49596484077907        1.91731670147903
C            3.00680634896695       -1.50420016540591       -0.80415638648832
C            4.33603430624541       -1.23199772294674       -0.67544432402238
C            3.73817892080497        0.96320938061322        0.19210305243692
C            4.69374114589300        0.04667724148681       -0.17966558526662
C            1.06222641310613        2.81297212458490        0.21304651830462
C            0.00361901477947        3.47859551859695        0.78509068679781
C           -0.87480196804199        2.82678455860965        1.67981099392164
H            5.73752116946332        0.27577478791824       -0.03117629052941
H           -0.19146944198480        4.50435462070865        0.51113595504416
H           -1.30774865826176        0.88461646930369        2.52354278830453
N            2.07251462744948       -0.57995994527111       -0.51401320043882
N            0.38027091410824        0.84954613140586        1.37643949181606
H            2.61700601112193       -2.44653055353476       -1.15468857636299
C            4.17650551433087        2.23106420331206        0.86178542083795
H            4.51703189860135        2.95679475698821        0.12511252391183
H            3.37255251137277        2.67110796951730        1.44340525706984
H            5.01229367686949        2.01954649073137        1.52503000772650
C            1.87764389326958        3.50006063778408       -0.84096045974908
H            1.21246261510732        4.01552940708688       -1.53134810505060
H            2.53362326367797        4.24836941125101       -0.39967460025759
H            2.47673554133397        2.78847270555726       -1.40068342752253
C            5.38365043548108       -2.24484135693935       -1.00194346498450
H            5.98056812396630       -2.46670142242560       -0.11833112894520
H            4.93189127374260       -3.16570334293091       -1.35787675354803
H            6.05497590095213       -1.86086703569009       -1.76902671043215
C           -2.02342046738340        3.55299759235300        2.30197524418714
H           -2.59403348491229        4.08665073717552        1.54317923759765
H           -2.68192271884754        2.85977751105624        2.81816016828136
H           -1.66014075296183        4.28852955805429        3.01966452535877
