69
 energy: -114.123362415659 gnorm: 0.000693182588 xtb: 6.5.1 (b24c23e)
Si           0.13315081997368       -0.85644398156611        0.84847605113301
O            1.37440794874070       -1.83580801455608        0.41070362177971
C            2.76523608936250       -1.64500913259816        0.37880249416833
C            3.37388868624691       -2.63167142372831       -0.58934044277277
H            2.97651182222296       -0.62432148571356        0.03665913701941
C            2.76699499555976       -3.85595161695014       -0.83003849634655
C            4.57790619663489       -2.33472412629419       -1.21555379544347
C            3.35339260223497       -4.76948864143171       -1.68818155005846
H            1.82753583302536       -4.07744669006829       -0.34832516731365
C            5.16579897864730       -3.25059009634202       -2.06921498179572
H            5.05439882432097       -1.38194385397177       -1.02939955484398
C            4.55446001137124       -4.47053520981843       -2.30762419517362
H            2.87100637323012       -5.71869062603648       -1.87250606942260
H            6.10212914969781       -3.01113479398346       -2.55248875933661
H            5.01328689459020       -5.18445234605469       -2.97623213881519
C            3.39797743183164       -1.84592893545976        1.77974103435674
C            3.62141959790971       -0.59337858029610        2.46493729069899
H            4.35339772169165       -2.36677138812909        1.67163149818407
H            2.72432413945211       -2.47090391643117        2.36927224230317
C            3.83607556763659        0.45749468984281        2.99475254304599
H            4.00232033313142        1.36710763162319        3.48828291554551
Cl          -1.17587855710016       -2.13445745303025       -0.10158751504428
Cl           0.43513598607191       -0.68143064001974        2.85865253652926
O           -1.38173658515662        0.31056624210868        1.27088111466256
O            0.62703023167573        0.40003013407631       -0.20985498074613
C           -2.05917161146741        1.46083141664839       -0.64502854112190
C           -0.87087420393140        2.23167048326643       -0.63037231705277
C            1.37895195336086        2.55037917878053        0.10916316354904
C           -3.41919870963011       -0.20598919387961        0.35890185553109
C           -4.43427842626694       -0.09187052120002       -0.56688119256293
C           -3.09028439341700        1.64565472558785       -1.58630287275205
C           -4.22455902405574        0.88474721210422       -1.56286691035200
C           -0.84476080596372        3.58120510068350       -1.03545382830141
C            0.23154743296511        4.38635291381442       -0.81021760971168
C            1.39534583840110        3.89148541319387       -0.15402378485205
H           -2.94040720842395        2.36861102015271       -2.37075980649163
H           -4.96894498703659        1.03729411463288       -2.32443161504847
H           -1.73839194453950        3.99087226173147       -1.47682213307972
H            0.19022603555570        5.41737188473962       -1.11171106709884
C            2.58577402282957        4.76028287822155        0.21840371343457
F            2.42689613898939        1.90477201007360        0.61624177178323
N           -2.28981744980102        0.52014348397158        0.32868044960190
N            0.33280908338232        1.73016650089853       -0.14982901783441
F           -3.50341006486822       -1.00371031689744        1.41354029545628
C           -5.66116951386487       -0.98422363716006       -0.50176788510495
C           -6.40510489900750       -0.74592998024133        0.82044426026022
C           -6.62761967345295       -0.69810190192552       -1.65447537645748
C           -5.20758878299409       -2.44772833768254       -0.60072829451354
H           -6.68091480786611        0.30259085721398        0.91688842436478
H           -7.31319303281685       -1.34339351592355        0.84113797852164
H           -5.79864101632510       -1.02638148890489        1.67522417903423
H           -7.47980858534209       -1.36882910564496       -1.57758925165506
H           -7.00140004495030        0.32251456813536       -1.61359303923657
H           -6.15277850535872       -0.87146033157633       -2.61693368638221
H           -6.07457961760158       -3.10340598673110       -0.57953902302952
H           -4.66831134428177       -2.61207191224331       -1.53051429311716
H           -4.55130916168903       -2.71976908109887        0.21903332730527
C            2.84519915650227        4.64081319212391        1.72720261323910
C            3.82185343902254        4.29499423057696       -0.56564126782142
C            2.33028141699761        6.23381957017086       -0.10988861961613
H            3.10390274456906        3.62453251522273        2.00599395507033
H            3.67042176844174        5.29003537421467        2.01011304080407
H            1.96222037223328        4.94073198092705        2.28800941246635
H            4.10024970093769        3.27934486048854       -0.30179513470275
H            3.62904247048542        4.33606439104808       -1.63584925220109
H            4.66415893270519        4.94525124226460       -0.34249598078912
H            1.45364259762978        6.60629322183505        0.41474820401868
H            3.18715693623561        6.82282870521546        0.20803271562019
H            2.20204368071141        6.38414825800532       -1.17916239149200
