69
 energy: -114.127986555937 gnorm: 0.000779371496 xtb: 6.5.1 (b24c23e)
Si          -0.06306690057434       -1.71707175225310       -0.77872819871119
O            1.46304123588922       -1.47045014386322       -0.27486892597104
C            2.27822285544386       -1.64217942000873        0.86690673502372
C            1.75777157002001       -0.78201665210159        1.99528518549729
H            3.25739121988377       -1.25438372891984        0.54663871787133
C            0.54130436246478       -1.06149094518953        2.60737265830420
C            2.46675102884516        0.34506828762253        2.39074427463952
C            0.03613860669794       -0.21032740953708        3.57429682255928
H           -0.01982656233583       -1.93510318797216        2.31690097798380
C            1.96764253358751        1.18758482985147        3.36839949757662
H            3.41952209654965        0.56511118158650        1.93016979347373
C            0.74404140684201        0.91715683736423        3.95534699870354
H           -0.91494285354354       -0.43280782797083        4.03511687399837
H            2.53360755986891        2.05778608503007        3.66815881521332
H            0.34736349132117        1.57850498421541        4.71189388054788
C            2.46453996961809       -3.10981541687681        1.28015358588149
C            3.11526450065705       -3.84809479879336        0.21954863860622
H            3.07919249653341       -3.13357643698330        2.18443046760046
H            1.49657739934607       -3.56672461407018        1.48755908009805
C            3.65628532589966       -4.40923200429661       -0.68796724022069
H            4.11536962530580       -4.93167925604185       -1.47247790280015
Cl          -0.34653147874034       -2.49989208214686       -2.62927073684982
Cl          -0.62379519660327       -3.45896281223172        0.29665714502744
O           -1.27723104830817       -0.96356244292531        0.16982505437902
O            0.06359071629966       -0.05216252449186       -1.69829708479372
C           -1.30394132183157        1.44556354093059        0.17274688873281
C            0.07133541571423        1.64678775147154       -0.08644567748782
C            2.01616602380249        1.08704110472661       -1.33034729627599
C           -3.27467077413847        0.12732566884066       -0.11869817419619
C           -4.13846487224240        1.15910613251567        0.12857096950932
C           -2.16039227728528        2.49571369455701        0.56678668193613
C           -3.51691171984624        2.36571774068504        0.55633794248624
C            0.84177908441747        2.65004865931270        0.53627812122531
C            2.15736372309625        2.84090580660778        0.22820215571833
C            2.80927569767413        2.04767622184634       -0.74185858439037
H           -1.71500871206380        3.44280400340149        0.82228492483479
H           -4.12673380938914        3.20257844635972        0.84610707982141
H            0.37901782784844        3.24165423078890        1.30779780602295
H            2.70665961964919        3.60688561105478        0.74653333023808
C            4.26355262243730        2.22960971753588       -1.14571390733862
F            2.46386881510309        0.28278115486218       -2.28429505764756
N           -1.92630570060685        0.22246738064859       -0.03323739071844
N            0.71793329055655        0.89986148025172       -1.04315540913227
F           -3.68792334320539       -1.09423403161232       -0.44014913795982
C           -5.64090252076205        0.99858375093804       -0.03701905216815
C           -6.15246408780440       -0.07597229534494        0.93324986468665
C           -6.38166783156807        2.30593068018069        0.25676111406702
C           -5.94463966848939        0.58711123332028       -1.48484807384912
H           -5.90832209136196        0.19278067939179        1.95869819599046
H           -7.23294074271948       -0.16156031877471        0.84773147845785
H           -5.71907768322948       -1.04689559136505        0.71699029256387
H           -7.44626919782751        2.15458157103384        0.09639772179020
H           -6.24184171979341        2.61559562376754        1.28956971046863
H           -6.05269396494095        3.10208701787099       -0.40669285197004
H           -7.01989991838280        0.51107686844793       -1.62642748087774
H           -5.55776253997174        1.33036450769430       -2.17877585034401
H           -5.50501768812482       -0.37496051484529       -1.72705686168799
C            5.03929627010095        0.92463718651310       -0.91503051416934
C            4.32278090974698        2.61598007179718       -2.63164191080910
C            4.93844631786740        3.33795675263202       -0.33239633794100
H            4.62110536368732        0.10008271311472       -1.48350048077561
H            6.07390310297825        1.05573732753192       -1.22309314097082
H            5.03092799745278        0.65893104914687        0.14024105464380
H            3.93779203697164        1.82241680607998       -3.26413872502121
H            3.74153957196547        3.51822673646454       -2.81188901302869
H            5.35338740416406        2.80754633588825       -2.92013174188180
H            4.92349545111768        3.11214874579929        0.73130961334203
H            5.97763021887471        3.42229238054275       -0.64090107226041
H            4.46044545939263        4.29961461839089       -0.50324831726979
