69
 energy: -114.131759143338 gnorm: 0.000220976717 xtb: 6.5.1 (b24c23e)
Si           0.38500270291079        1.64302783800649       -0.30155940596882
O           -1.18527345968542        1.37047906896532        0.03271574541791
C           -2.14796606966067        2.08096720858847        0.77270063293923
C           -2.90124115535998        1.08511816407876        1.62993851982880
H           -1.63125208346434        2.80207332326079        1.42350493516467
C           -2.24215762892750       -0.05739124590678        2.07246681900102
C           -4.22841687457831        1.26641015984498        2.00118064439331
C           -2.89569239082660       -1.00926775058674        2.83274010462114
H           -1.20186029868992       -0.19617185955438        1.82275530271131
C           -4.88065149326953        0.31953749016325        2.77291264748398
H           -4.76906962420558        2.14812609037646        1.69596517313370
C           -4.22263903111558       -0.82723572531107        3.18224903479637
H           -2.36395342780129       -1.89246250479276        3.15694589862941
H           -5.91245242787792        0.47812585327135        3.05056094538290
H           -4.73779823775500       -1.56816577315560        3.77573642584398
C           -3.05164750438627        2.85909119441255       -0.20045638445053
C           -2.25665544067459        3.72876554499090       -1.04255855969403
H           -3.76043772130652        3.46732456043453        0.36444394897400
H           -3.59875287659494        2.15061343269229       -0.82878811655217
C           -1.56898566897519        4.42608819115008       -1.72890518155636
H           -0.96206250116434        5.03331100712295       -2.33067087913917
Cl           1.17800067144103        2.53270331378554       -1.94883919612783
Cl           0.71016226965180        3.24399544611727        1.05248704650053
O            1.41495378609189        0.70943170952281        0.71479244475521
O            0.27600812467768        0.12721768621683       -1.41208222742843
C            1.67545437354757       -1.60677242996461        0.18737097355676
C            0.30910982011048       -1.81916155462837       -0.11388845457106
C           -1.66398681520005       -1.10620167127996       -1.22663242598950
C            3.53197599403963       -0.10855821888523        0.29834589556010
C            4.47245757780880       -1.10435641392310        0.29565851794914
C            2.60566927269892       -2.65740153115546        0.31555132107367
C            3.94809172547099       -2.42475594673249        0.37147217045745
C           -0.41592296141197       -2.94790432693425        0.31648860944953
C           -1.73303908739393       -3.11405791877023        0.00116125448287
C           -2.42105145055529       -2.17643440548055       -0.80244267696737
H            2.23243276648691       -3.66832237912945        0.30164689655308
H            4.62254284217336       -3.25905215081081        0.44319300362727
H            0.08511237928526       -3.66034619218571        0.95084936676931
H           -2.25452240489767       -3.97603231366145        0.37764811231381
C           -3.87456177811876       -2.33601488400842       -1.21675544032800
F           -2.14575361406553       -0.17522880358035       -2.03859885740239
N            2.19849897929288       -0.32984508742762        0.31521394677003
N           -0.37017340069210       -0.92764148368650       -0.91355835372148
F            3.84690623449368        1.18033822962801        0.32500727784862
C            5.95837623524062       -0.79141918334669        0.23080385421142
C            6.36644707722416        0.00542905881918        1.47860238797831
C            6.80039682189111       -2.06925137462277        0.17603984247478
C            6.24491933246281        0.02872584787856       -1.03552309590998
H            6.13594727010962       -0.55864292276558        2.38020676052937
H            7.43625599169608        0.19764627253134        1.45676695648165
H            5.85285801187875        0.96037770647002        1.52636315541005
H            7.85045563771505       -1.79911894338679        0.09566746603337
H            6.67836045162972       -2.66274572319284        1.07900730578688
H            6.54218665169108       -2.67275793411843       -0.69093678117305
H            7.31275825295529        0.21643556288204       -1.11632397962807
H            5.92317696056707       -0.51674591406388       -1.92030964152338
H            5.73591060946675        0.98694569959753       -1.01646186814970
C           -4.67691218065697       -1.09763121235817       -0.79587075326929
C           -3.94036607499349       -2.51235376392127       -2.74173269954028
C           -4.51481731373848       -3.56071283644218       -0.55755722145150
H           -4.60474453054081       -0.94806485543657        0.27856199516138
H           -4.32101398135799       -0.20291571072275       -1.29544550103598
H           -5.72371724822738       -1.23394268033469       -1.05715098518925
H           -3.56319835898705       -1.63542570412484       -3.25892195701459
H           -3.35437249733965       -3.37614940299898       -3.04977149093115
H           -4.97153692822916       -2.66874547543706       -3.04889648204150
H           -4.48372208963893       -3.47953667885363        0.52639684170205
H           -5.55758857255734       -3.62194106139455       -0.85918999661245
H           -4.02490461977520       -4.48056471172622       -0.86809956839042
