69
 energy: -114.129459826789 gnorm: 0.000678487121 xtb: 6.5.1 (b24c23e)
Si          -0.16039776500924        1.49451038146330        1.14343289226958
O            0.41106054058434        2.52458392632928        0.03339857692817
C            0.15553312096509        2.65896518704677       -1.34804864724303
C            0.61523926631632        1.45579753087648       -2.12957666898491
H           -0.92419026760999        2.78892553654804       -1.48897857057533
C            1.81823127433526        0.83722913814371       -1.81807039319572
C           -0.16791638358915        0.93862986784946       -3.15333845968909
C            2.20874914787953       -0.30752677234538       -2.48939650569269
H            2.43120524466846        1.24891097980653       -1.02977430471936
C            0.22901567805836       -0.19922498622915       -3.83180751257357
H           -1.10359524999913        1.41914060008253       -3.40072246449252
C            1.41342696960084       -0.83196532655244       -3.49339159584954
H            3.13531810148124       -0.79708934033451       -2.22798793135699
H           -0.39275197854897       -0.60093972786997       -4.61894684122010
H            1.71619789934385       -1.73076121106315       -4.01082321855244
C            0.89350183592716        3.92179235209581       -1.82984270823916
C            0.30128422940133        5.11605868639782       -1.26677876726993
H            0.84989467577070        3.96488936252959       -2.92193790315425
H            1.93777087111001        3.85326074967279       -1.51603387193927
C           -0.21534482309722        6.08489156892639       -0.79202469475282
H           -0.64980395649249        6.94365681696686       -0.37564491129123
Cl           0.68441231856547        2.58447938566950        2.70427449470496
Cl          -2.07109054183152        1.43857445965714        1.94675182399226
O           -0.76797259377539        0.39421972170425       -0.29495919549027
O            0.70860998237785        0.11899102003121        1.68675150611088
C           -0.91796477442781       -1.86209667495718        0.29989416286992
C            0.48444389516539       -1.94813835750135        0.47670761261654
C            2.60122742097073       -0.93664087712884        0.93563810631852
C           -2.83997456568238       -0.58273381273215       -0.26887310051125
C           -3.72454278198444       -1.62410829786340       -0.09930593385085
C           -1.77997428584191       -2.97029590626802        0.43003250989044
C           -3.12978984077740       -2.85385024154688        0.26258366562976
C            1.20637322620035       -3.11875845224315        0.16594284223486
C            2.56718897043021       -3.17262615343671        0.21266971660587
C            3.33752295289797       -2.03307493306015        0.57952236991885
H           -1.35347267841891       -3.91388529074206        0.72742500250763
H           -3.74947255948874       -3.72066827364791        0.41068930932788
H            0.64828130874101       -3.97824228303974       -0.16709464811722
H            3.06535855926365       -4.08768344474263       -0.05287005147140
C            4.85737815205606       -2.03113324203893        0.64791571882949
F            3.16172799328206        0.19524971895151        1.34862385206571
N           -1.51488969187878       -0.67953108194858       -0.06896232172384
N            1.24710673664613       -0.88726048549540        0.94103169538383
F           -3.21478149685319        0.60910917035704       -0.71816461882464
C           -5.21948138200176       -1.42629719150831       -0.27904624370014
C           -5.51516312311433       -0.99213053533002       -1.72228203723987
C           -5.99568418515100       -2.71561219075925        0.00308089309297
C           -5.69367160657237       -0.34902774333218        0.70726456016532
H           -5.13001311400870       -1.72744950432278       -2.42636480456756
H           -6.58965077043294       -0.90893638039857       -1.86555714744842
H           -5.07096379664733       -0.02811979958687       -1.94746552357288
H           -7.05906396198816       -2.52269726929964       -0.11552864485098
H           -5.71955618762345       -3.50423424226024       -0.69331970914304
H           -5.83068870374122       -3.05817034137904        1.02160714485916
H           -6.76690029621339       -0.20612815881216        0.60794901661879
H           -5.47676881912860       -0.65249974148336        1.72880168060572
H           -5.20432988642454        0.60266565586037        0.52792859486092
C            5.43412153268787       -0.91116921479026       -0.22945217091874
C            5.28093353855775       -1.81556234888905        2.10954125860855
C            5.44258760196839       -3.36185569396899        0.16567063512009
H            5.07914642876941        0.06675646611326        0.07876325649012
H            6.51888487656580       -0.91215119894110       -0.15301111930739
H            5.16865144608540       -1.06786629755658       -1.27304156838585
H            4.96503847848179       -0.84340656846743        2.47539601369937
H            4.84720499205903       -2.58368680950275        2.74692212303379
H            6.36373206466331       -1.87209975614700        2.19063572519250
H            5.15272446201298       -3.57080759584478       -0.86181887725426
H            6.52790291376575       -3.30605398143358        0.20258663503739
H            5.13008636069850       -4.18530054627658        0.80355129158445
