69
 energy: -114.131365914627 gnorm: 0.000255200560 xtb: 6.5.1 (b24c23e)
Si          -0.39463974413626       -1.41298261517296       -0.72552274310059
O            1.19289413191703       -1.25868062894682       -0.39169383263255
C            2.18416891533008       -2.21455471571768       -0.11996634233446
C            3.04406186077912       -1.76417573065053        1.03675736917007
H            1.70231124866883       -3.16642074464402        0.14285402622874
C            2.83461755384955       -0.54602857756049        1.66670810542709
C            4.06754221307671       -2.58695728471713        1.49619136727570
C            3.64517868652515       -0.14295340941834        2.71451837613814
H            2.02323907655134        0.08637475746017        1.34238571067244
C            4.87871129692075       -2.18428804083370        2.54024680647483
H            4.22117047157898       -3.55517820841693        1.04257187996806
C            4.67603672584963       -0.95616148616795        3.14875805483776
H            3.46589280195420        0.81003248393410        3.19257874689096
H            5.67045805047826       -2.83310571676579        2.88489295911728
H            5.31168460810345       -0.64183720495470        3.96333326988426
C            3.02834165311728       -2.42246754192916       -1.39495422867297
C            2.22092546792121       -3.01530630543413       -2.43942544830953
H            3.87926192323227       -3.06865328749013       -1.17165067235137
H            3.39915793042509       -1.45164475871232       -1.73313874971339
C            1.50465352494042       -3.49245637923232       -3.27014203779776
H            0.88085258396215       -3.90540228297145       -4.00470901340869
Cl          -1.30602731002618       -1.80632561544358       -2.50537336708812
Cl          -0.69103765891749       -3.33432145102730        0.12729218063653
O           -1.32301275549403       -0.77905547639119        0.57666620425327
O           -0.31931882093838        0.34047072279247       -1.39969471703348
C           -1.63796457185868        1.58860427956329        0.65424193904587
C           -0.29283169455692        1.89961399584801        0.34352688175022
C            1.62417527267759        1.52169156359608       -1.00832830574129
C           -3.46879465577950        0.06085316883554        0.53019190559750
C           -4.41766904113511        1.00576101563785        0.81913627516508
C           -2.56942893037660        2.55931246194372        1.07378994625190
C           -3.90312776385266        2.28812393574995        1.15646840497036
C            0.44192768995666        2.91183162254514        0.99252696087584
C            1.73864462201410        3.17853760075542        0.66129473279417
C            2.39463200280149        2.47226615076116       -0.37414417231535
H           -2.20803599312805        3.55598915860221        1.26747883837692
H           -4.57975084790712        3.06879399306384        1.45457891602747
H           -0.03194590658722        3.44254437619785        1.80164119493195
H            2.26965471562937        3.93917805495635        1.20554125594443
C            3.83093688989557        2.74189521853317       -0.79269340175850
F            2.07077352507717        0.82432659224822       -2.04423442290260
N           -2.13946290546580        0.30561946494287        0.50823699402976
N            0.35130433690974        1.24235268936635       -0.68156772521695
F           -3.76854919136841       -1.20768337512334        0.28306380473756
C           -5.90047554342512        0.67262827350424        0.79721292945548
C           -6.19667617426137       -0.38197639068059        1.87381066104899
C           -6.75864893627602        1.90882013271464        1.08057161961638
C           -6.27945272672199        0.13193175013475       -0.58915281991986
H           -5.90046141135312       -0.01520540334630        2.85464205083218
H           -7.26225801628448       -0.59642754048871        1.89369992751295
H           -5.66890680227194       -1.30974686221138        1.67675347073620
H           -7.80859769318251        1.63335274088670        1.01946014229385
H           -6.57528693569898        2.29817157328498        2.07916245157969
H           -6.57397564013858        2.69093632709006        0.34796678573551
H           -7.34851447891923       -0.06263575363420       -0.62579788366926
H           -6.03539602540787        0.86073906989715       -1.35926241196145
H           -5.76200498458859       -0.79482843928574       -0.81439619252530
C            4.65093861653351        1.44702754343977       -0.70145557246609
C            3.84174078312918        3.26981548078326       -2.23545623554753
C            4.49167863317662        3.78747596717223        0.11009089618169
H            4.59308046780360        1.02658507511378        0.30039589293350
H            4.29886601555103        0.70300901115212       -1.40820885310787
H            5.69329084641079        1.65699363590246       -0.92908825539075
H            3.44334249185132        2.53681410933895       -2.93024794594852
H            3.24803456345896        4.17873106959865       -2.31149963089779
H            4.86173084983070        3.49895078754026       -2.53413862699794
H            4.50774698657882        3.45587941501120        1.14552013153024
H            5.52046365834246        3.93350885480401       -0.20984498703028
H            3.98420946723638        4.74700810267772        0.04356952890529
