69
 energy: -114.129656477763 gnorm: 0.000563510802 xtb: 6.5.1 (b24c23e)
Si           0.32442727264714       -1.11656160784892        0.85265920111527
O           -0.47914387580925       -1.97790259705059       -0.24279581083015
C           -1.48549001128803       -2.95151423158476       -0.10936171124590
C           -2.76114138365682       -2.43581127045601       -0.72572804775537
H           -1.64711644799625       -3.16956417765268        0.95343727740649
C           -2.70974165885026       -1.55591133600158       -1.79844312794631
C           -3.99504921324154       -2.84005241118225       -0.23470111800282
C           -3.87743369271096       -1.08507963438486       -2.37158261167619
H           -1.74603168637453       -1.23543716598116       -2.16480583322265
C           -5.16217417198838       -2.37189525938148       -0.81182300205694
H           -4.03784052211105       -3.51651905362423        0.60657929184858
C           -5.10618214680856       -1.49372711412510       -1.88104324126649
H           -3.82988682676254       -0.39758947868529       -3.20428748862411
H           -6.11879583566316       -2.68856437207959       -0.42257495091793
H           -6.01787711448088       -1.12454439384765       -2.32797029341658
C           -1.01382214206176       -4.23502961229707       -0.81906599303209
C            0.15361430462491       -4.76852563843134       -0.15032980458338
H           -1.82316202447082       -4.96937376451084       -0.80755327378939
H           -0.76395583878596       -3.99110552043406       -1.85474252662232
C            1.12061259459362       -5.15856695510734        0.43585585117943
H            1.96972702088650       -5.50867072305000        0.94187695570090
Cl          -0.45884413011504       -1.93757575130153        2.65591194004783
Cl           2.28658096917049       -1.46848155475151        1.41448056294515
O            0.91485870667927       -0.18469630811824       -0.66534180356298
O           -0.30315672227138        0.37245236455177        1.41928478223983
C            1.62844569467256        1.96187690167128       -0.05048340504598
C            0.29387223338442        2.35078357654524        0.21295676889666
C           -1.97920806918192        1.69755708580092        0.55032280032480
C            3.15090948301342        0.30973615598225       -0.82576501289907
C            4.26199219796493        1.11349767455747       -0.69395572656745
C            2.73112388363323        2.83138309842243        0.06320345021860
C            4.00102659310985        2.41848279478250       -0.22136844500414
C           -0.18783994200765        3.65698316011588       -0.00784643397712
C           -1.52204395133776        3.93946174337828       -0.00103013188192
C           -2.49296547643194        2.91993387077303        0.21067504571364
H            2.55602843331428        3.82632152121292        0.43731983964549
H            4.81586983292878        3.10726523221876       -0.08394509894452
H            0.52578343463512        4.42805916647749       -0.24731794701439
H           -1.84592384227566        4.94656039255787       -0.19297286087560
C           -3.99124078684251        3.14737932066619        0.09299622120758
F           -2.74077580031217        0.65488690150686        0.86787178528419
N            1.90213117589226        0.69447783468291       -0.51071606737597
N           -0.65597493793697        1.43371822622022        0.63586226094992
F            3.20894173319632       -0.90391189355286       -1.35339758684547
C            5.65060040774437        0.59664159944814       -1.02800594465758
C            5.71411719648736        0.21652303801259       -2.51475380867013
C            6.72491573299860        1.65317249568569       -0.75591921454656
C            5.94483164495727       -0.63010412908107       -0.15295703853356
H            5.45731103824343        1.07213083775015       -3.13656871074892
H            6.72251596290550       -0.10145311164981       -2.76743696001500
H            5.03655862944907       -0.59854163824599       -2.74668874559387
H            7.70084221040825        1.23486831056857       -0.98956593451145
H            6.58150906844747        2.53349810739515       -1.37842565518174
H            6.72997269523957        1.94671427246383        0.29080000894399
H            6.94650569206666       -0.99784132619922       -0.36132345494764
H            5.88287811575658       -0.36504799932295        0.89974172747841
H            5.23999704319034       -1.43348357060575       -0.33880326142610
C           -4.56386178986588        2.18737489046160       -0.95957260943693
C           -4.65466456500323        2.89177151691899        1.45416800268064
C           -4.31093802058027        4.58151888585133       -0.33836450585198
H           -4.43061326638532        1.14884948766195       -0.67265167829207
H           -5.62899018619668        2.36904364170173       -1.08054624280971
H           -4.07655918068805        2.34626663922486       -1.91942482025008
H           -4.52841779233222        1.86135725770225        1.77098084954355
H           -4.22573389536657        3.54372404479608        2.21248274104338
H           -5.72034185954559        3.09637620743315        1.38680135112641
H           -3.85831048342493        4.81338401490365       -1.29954794507690
H           -5.38801583962952        4.68979188581009       -0.44009674082280
H           -3.97325487143420        5.30165444461933        0.40303691081352
