69
 energy: -114.129405644161 gnorm: 0.000713843395 xtb: 6.5.1 (b24c23e)
Si          -0.13970498184263        0.83223580430296        0.63903923549828
O            0.19874882684897        1.83475208398145       -0.57960059658515
C            0.27444931252836        3.24169736918726       -0.55990801053486
C           -1.08068361588791        3.84824355758341       -0.29843365497840
H            0.97127460416217        3.55079040102390        0.22925271831526
C           -2.21861845262180        3.25280929030515       -0.82555342963442
C           -1.20477835293491        4.99652934581083        0.47068010229942
C           -3.46718085839894        3.79371783394671       -0.57804390390462
H           -2.12136935034983        2.35012825342708       -1.40996241794085
C           -2.45362934520495        5.54175628923935        0.70966597757194
H           -0.32182780988222        5.45262174051379        0.89397969316270
C           -3.58665594175006        4.94076796154427        0.18768713408566
H           -4.34802345932234        3.31566939811974       -0.98089008271217
H           -2.54350404629013        6.43212267753901        1.31460931038109
H           -4.56191738629875        5.36208890187773        0.38386196820189
C            0.80834483158073        3.69250353144676       -1.93078285574037
C            2.16216795519817        3.23002364385014       -2.14516799601600
H            0.77886943758195        4.78415871006138       -1.97957029659014
H            0.15709922244895        3.28262526859558       -2.70671890762537
C            3.28121799986904        2.83640402684239       -2.30126601053121
H            4.26470110784113        2.50370243582902       -2.45159405357444
Cl          -2.03063224561733        0.43639143615795        1.41991975857466
Cl           0.38706930243465        2.08452972813920        2.28438538205608
O           -0.43636451985429       -0.37907918144889       -0.74221506794772
O            1.04937780924509       -0.24052643888739        1.23694526527295
C           -0.20734099772327       -2.57527028786446        0.04944302623862
C            1.18756649049690       -2.39745978918927        0.20300992929461
C            3.05497701860687       -0.91485373880797        0.33050942231141
C           -2.30763582309787       -1.70220631858413       -0.64118184282077
C           -3.00583001641080       -2.85490599624820       -0.35943457823751
C           -0.87256832009678       -3.79049798598865        0.30880769459238
C           -2.22047693673603       -3.92003374626797        0.13654429822093
C            2.11821177614021       -3.43574059737891       -0.00811211499091
C            3.45629784894326       -3.19302420274142       -0.10433988347423
C            3.97565478842848       -1.87198565090629       -0.00363385300725
H           -0.29661958748811       -4.60950506453012        0.70652958683738
H           -2.68951212049576       -4.85610889392654        0.38406437859971
H            1.73869904331668       -4.43289948416850       -0.15878900051746
H            4.12640722929178       -4.01310308334233       -0.29003172238160
C            5.43945698166077       -1.52450737925687       -0.22191360730831
F            3.38419544259732        0.35096920357074        0.56036781818620
N           -0.98642970467012       -1.55450370330659       -0.44260182621592
N            1.73664592022494       -1.16003600113669        0.50004662126200
F           -2.87238282298732       -0.64695006948891       -1.21155892160884
C           -4.50985395685646       -2.93207786519109       -0.55651664345486
C           -4.85093628216929       -2.70794739352707       -2.03714923231350
C           -5.06304557195804       -4.29701947316356       -0.13802383586291
C           -5.17345913836501       -1.85281406986716        0.31090237738026
H           -4.33947557010151       -3.43981795384649       -2.65959215149660
H           -5.92221503992968       -2.81924503695250       -2.18564245381719
H           -4.56800903917432       -1.71331047513594       -2.36557142625571
H           -6.14124805712340       -4.30103383237053       -0.27798239526540
H           -4.64432676422439       -5.09661585044273       -0.74500827756194
H           -4.86260769957910       -4.49641524437164        0.91176851249836
H           -6.25364484782377       -1.90365815456572        0.19894606001130
H           -4.92428240938755       -2.00610082738071        1.35810277675669
H           -4.84637186160369       -0.85676769107953        0.03173432121385
C            5.54589364491938       -0.45662543906808       -1.32019470211297
C            6.03528629214645       -0.99093513512383        1.08943360923262
C            6.24938721590692       -2.74800381355791       -0.65948581345459
H            5.05582497505388        0.46459236159906       -1.02252586374992
H            6.59265471892802       -0.23665502350794       -1.51733599308544
H            5.08799835570361       -0.81378362811181       -2.24078919403727
H            5.54267833704322       -0.07736580740366        1.40683499358668
H            5.93414512404876       -1.73191319405264        1.87970064941116
H            7.09238740616153       -0.77613057307534        0.95218988166182
H            5.85464488669849       -3.17161727480854       -1.57991358499806
H            7.27809567398911       -2.44700216178524       -0.84225222354658
H            6.25993935422779       -3.51192672263067        0.11400392315829
