69
 energy: -114.124942143391 gnorm: 0.000643851964 xtb: 6.5.1 (b24c23e)
Si           0.24942186730042       -0.75026432509557        0.12402274222986
O            1.27263085425599       -1.98920020772410       -0.03078963616029
C            2.35233544926620       -2.46173269976453        0.73442063290708
C            3.48468187442860       -2.86162374245670       -0.17473337426157
H            2.68734232417064       -1.67869462454914        1.42397100845165
C            3.22456907418106       -3.38529446025823       -1.43376065075053
C            4.79939809083013       -2.73821709802157        0.25508289360903
C            4.26758479685850       -3.77600829009708       -2.25451821587140
H            2.20137549749201       -3.46744344406922       -1.76697745380723
C            5.84089013843938       -3.13600208975283       -0.56386211222172
H            5.00477525268962       -2.32399493249474        1.23224981387637
C            5.57700350186212       -3.65543370329477       -1.82032305510810
H            4.05760144870376       -4.17673761316395       -3.23537585101472
H            6.86098661004412       -3.03616155136801       -0.22273550444008
H            6.39128389499435       -3.96205203392629       -2.46071882890162
C            1.87199104546057       -3.68136891800950        1.54968433786494
C            0.78061595991703       -3.30164067613679        2.41965729781614
H            2.70798584903102       -4.07184064109867        2.13490452854037
H            1.52943859113989       -4.45217283701927        0.85383674055808
C           -0.13887607823418       -2.92677496318063        3.08713777009987
H           -0.93722083068732       -2.61384585115899        3.69062957012012
Cl           1.27831199095430        0.21612877518507        1.77291192157102
Cl          -0.96341890847072       -1.74921429311705       -1.34289508210931
O            0.43064336780105        0.56216741533082       -0.97229737147131
O           -1.15956293647011       -0.15306283874396        0.96638935058015
C           -1.03439030952099        2.31628121506222       -0.34872893885125
C           -2.19224508260459        1.48876147982049       -0.36189262144931
C           -3.29335900422220       -0.56173435116170        0.17290465277289
C            1.33899391045367        2.59890270548465       -0.37731770307771
C            1.29359296009534        3.94277247938376       -0.10296691092024
C           -1.12193514630243        3.71027460173744       -0.17096157274652
C           -0.01228175078956        4.49429158641677       -0.03826988271839
C           -3.40235400201091        1.90247754337342       -0.94895149996298
C           -4.48787583410552        1.07673862415624       -1.01904758973331
C           -4.46262271664193       -0.22745856162063       -0.46560411681711
H           -2.10354443248869        4.14310613307263       -0.06689018406770
H           -0.13462807611719        5.54817190028894        0.13767022003253
H           -3.43161635280943        2.87390202687695       -1.41488912358536
H           -5.37513604822697        1.42339801618532       -1.51855811762768
C           -5.61431444700872       -1.21205377682674       -0.56963438610188
F           -3.13751718646406       -1.68977289503182        0.84880199947273
N            0.24543301819025        1.82740176536195       -0.53110207568260
N           -2.22609865944856        0.25355349592675        0.24891644579998
F            2.47245687352013        1.94509858572171       -0.58586739870061
C            2.56344933563744        4.74858184950457        0.11119881423251
C            3.40956395376896        4.72533681688978       -1.17037274406077
C            2.25226591104920        6.20737018294259        0.45673485103391
C            3.34961015445577        4.13172097794570        1.27701188462020
H            2.83859166455281        5.11935833390761       -2.00889587731415
H            4.29381095622150        5.34337851985009       -1.03577449989740
H            3.73586326300662        3.71953373297990       -1.41427127931871
H            3.18538109074587        6.73765670927432        0.63044910851148
H            1.73304869787680        6.70513167464761       -0.35898671562533
H            1.65451930096133        6.27703333209186        1.36218726274596
H            4.24834545394988        4.71459640272460        1.46345043224480
H            2.74392008967246        4.12920667283945        2.18028133303780
H            3.64509599017791        3.10952337199050        1.06483773637450
C           -5.11235105135672       -2.47674548230768       -1.28079103184718
C           -6.12675919805790       -1.55995291873530        0.83563713682679
C           -6.77894168775905       -0.63267403665973       -1.37721121385533
H           -4.31778611164078       -2.96104854420226       -0.72331851416025
H           -5.93069909220608       -3.18324745233371       -1.39626422474096
H           -4.72545000094392       -2.22574759434810       -2.26529927465815
H           -5.36475645716591       -2.06023537817072        1.42416887585631
H           -6.43808707755262       -0.65871036264223        1.36044498530057
H           -6.98299961341469       -2.22536142533530        0.75772945248148
H           -6.46610730827953       -0.37678450449402       -2.38639345123401
H           -7.56588420047210       -1.37932538602555       -1.45069468352593
H           -7.19793750267786        0.24687957742791       -0.89358503116605
