69
 energy: -114.131093127017 gnorm: 0.000198407547 xtb: 6.5.1 (b24c23e)
Si           0.51088384508209       -0.51920024732645        1.38235345911911
O            1.02151357121985       -1.84090503707163        0.61467774319563
C            1.50067163048351       -2.10320627594976       -0.68139208960436
C            2.70217050691102       -3.01312904461044       -0.60167691945582
H            1.78133608105078       -1.16393098403128       -1.16733113082022
C            2.88708363069751       -3.85334454484514        0.48678078862823
C            3.62533734288091       -3.02642137376699       -1.63984470861283
C            3.98587907854680       -4.69347418013492        0.53734323517417
H            2.17463599509935       -3.82878317029880        1.29667127456896
C            4.71934252340023       -3.87097019830740       -1.59002680933084
H            3.48733003579312       -2.36735107400414       -2.48595341036403
C            4.90189063773439       -4.70627747493516       -0.50032020724150
H            4.12675600077903       -5.33941374648003        1.39130912054777
H            5.43430052721882       -3.87314173816970       -2.40009126207730
H            5.75959679495913       -5.36166819800867       -0.45963681416656
C            0.37850419707011       -2.78122073557281       -1.49873930736090
C           -0.60393726957423       -1.82387965153977       -1.95288729537552
H            0.81874996912253       -3.28363323967982       -2.36414382208153
H           -0.09949477066151       -3.52783674800268       -0.85942982316548
C           -1.39359861864575       -1.00844940991891       -2.33323990179700
H           -2.08443866882226       -0.29646774484454       -2.67500417687392
Cl           1.74509775612261        0.91941016685910        2.23738111982012
Cl           0.21793314005070       -1.58449816124773        3.15550082491472
O            0.56633104812993        0.44323601173584       -0.26404409895504
O           -1.13050069632774       -0.06441198725766        1.48043403011009
C           -0.76267453618688        2.36679896792559       -0.11229431182401
C           -1.94372949665669        1.58859142642456       -0.06509338807546
C           -3.00043306432188       -0.53374771818465        0.23001441228473
C            1.60256835777040        2.48307417260870       -0.32047894737556
C            1.65427418472727        3.85785041025183       -0.27967554744564
C           -0.76116615647779        3.77661281647849       -0.10541728777390
C            0.39856790496818        4.49435134210315       -0.16281045568355
C           -3.16187734558409        2.03169681853092       -0.62141370404397
C           -4.23020104192824        1.19936782761156       -0.77907292476040
C           -4.15832171801653       -0.17179927161056       -0.40417486909040
H           -1.70420433938671        4.28495540287843        0.00730259109080
H            0.34917155613976        5.56796187019883       -0.11619140421752
H           -3.21357400657944        3.04557616412291       -0.98310926110797
H           -5.13074252524939        1.58076981260362       -1.22622877243574
C           -5.27528782166136       -1.17119361424552       -0.65760667631794
F           -2.79690242989039       -1.75398200095458        0.71294450862601
N            0.46841589836122        1.76739499948582       -0.23318952574985
N           -1.97037144358553        0.31019662071515        0.47140402507929
F            2.67764111759551        1.73033163468590       -0.52174786961293
C            2.97883291982246        4.59859250595381       -0.33169295586520
C            3.69079368644980        4.29335791146424       -1.65789060548449
C            2.78046495349015        6.11332602520500       -0.23053075997301
C            3.84339180077939        4.14213824715846        0.85236625964660
H            3.05977118422158        4.57056300528126       -2.50036013753225
H            4.61344198735294        4.86536848664704       -1.71686917667818
H            3.94255851529118        3.24127677535161       -1.74258216796077
H            3.75178360829294        6.60099199573764       -0.25785880833192
H            2.19299901269755        6.49211412818439       -1.06391114059437
H            2.29790302963041        6.38387866728875        0.70528047836040
H            4.78452733690738        4.68653832333602        0.85207452515217
H            3.32917419447018        4.33569717969991        1.79074328145265
H            4.06286719092267        3.08079004778766        0.80257175647799
C           -4.73481613285072       -2.34398308684643       -1.48814844353396
C           -5.80797043890280       -1.68195765219704        0.68935611680369
C           -6.43734038956611       -0.53484059232304       -1.42588396876441
H           -3.94072129798252       -2.87031895150697       -0.96910733764572
H           -5.53645307841229       -3.05117361574189       -1.68669593042731
H           -4.34501447621318       -1.99034473004423       -2.44007976354320
H           -5.04240795893003       -2.21695824464684        1.24223392440625
H           -6.15790600990763       -0.85043534359786        1.29780198541437
H           -6.64106335189711       -2.36009273256579        0.52143773877829
H           -6.10913765341803       -0.14705868890750       -2.38746753413475
H           -7.19600851694998       -1.29103251180942       -1.61206526672229
H           -6.89946549763339        0.26525995686065       -0.85261447964573
