69
 energy: -114.129398765114 gnorm: 0.000522074973 xtb: 6.5.1 (b24c23e)
Si           0.26318042887489       -0.96393182236407        1.43003135970658
O           -0.59225627584452       -2.15394458084254        0.77375448078814
C           -0.86499430564175       -2.56324653394160       -0.54682888466029
C           -2.30560345543933       -2.26867834332661       -0.88030933683479
H           -0.20565117421583       -2.02876643889873       -1.23593132446371
C           -3.27212932458827       -2.28401263274028        0.11640999540624
C           -2.68063508462096       -1.99479558238405       -2.18934771800596
C           -4.59602944108017       -2.02751585603954       -0.19291194253679
H           -2.97432098874830       -2.48011932467152        1.13467793906153
C           -4.00610337970822       -1.74562991245348       -2.49817457530597
H           -1.92961847189106       -1.97618288423627       -2.96702466040056
C           -4.96667420824143       -1.76199572045302       -1.50055864051077
H           -5.33986192880880       -2.03531195592244        0.59006510362443
H           -4.29019928485457       -1.53466281453120       -3.51915204743591
H           -6.00054116543125       -1.56331823101410       -1.74257724107198
C           -0.57773131857169       -4.07364457661228       -0.64327524117748
C            0.83876062368179       -4.31573914821613       -0.47110142349612
H           -0.90882732223243       -4.44299583468601       -1.61741900990537
H           -1.13692392276782       -4.58486340271112        0.14404173383636
C            2.01878555158195       -4.44451071879445       -0.32338788735463
H            3.04956861205506       -4.57913909519662       -0.18664291477193
Cl          -0.42752000417156       -1.37944835853287        3.34939239508717
Cl           2.26784787195185       -1.07660050727937        1.90614747580715
O            0.78710417807238       -0.36301695873207       -0.38746185443596
O           -0.36512880784575        0.60971419122907        1.59804091911716
C            1.46653661088739        1.87003985966221       -0.28327560199754
C            0.13221603753548        2.28070176947708       -0.04992562348627
C           -2.10781322358728        1.67830200009944        0.52502466199174
C            3.00317125669323        0.11283770052325       -0.71940519253733
C            4.10037310436729        0.94328931729990       -0.79758431603723
C            2.54936305626482        2.76161077693854       -0.40716604038641
C            3.82118950028049        2.31599619648158       -0.63009196008266
C           -0.39262641250359        3.49838556665262       -0.52528862249777
C           -1.73186304723974        3.75555821087799       -0.51685015224848
C           -2.66588916803926        2.78993143548646       -0.04321353134381
H            2.36114584005619        3.81235264624861       -0.26268033903164
H            4.62258077002439        3.03204222256767       -0.67843988085380
H            0.29046481762587        4.21014332872104       -0.95913098201738
H           -2.08926461503773        4.69168184592090       -0.90634314223201
C           -4.17312968545707        2.96250305323439       -0.13708710745238
F           -2.82951059008827        0.71538203849191        1.09139890197926
N            1.75500624859710        0.53779042434817       -0.46219934566389
N           -0.77461282199914        1.45511033589727        0.60105346751817
F            3.07451728481046       -1.18917106841947       -0.96484268371558
C            5.49446137075038        0.38386845457599       -1.02086951632684
C            5.55599005068688       -0.33083172005898       -2.37879629483934
C            6.55296211379696        1.49012647002305       -1.01118820046011
C            5.81388068311515       -0.60109460135131        0.11306301671260
H            5.28781255629533        0.35435257009657       -3.18088647633438
H            6.56686919124829       -0.68917873415068       -2.55704502458272
H            4.88600797660861       -1.18380386642160       -2.41147319762821
H            7.53447683846994        1.04356436950672       -1.15008871479591
H            6.39180441661331        2.19982387481241       -1.81956625637123
H            6.55849614556261        2.01865421789493       -0.06118619073966
H            6.82095166826054       -0.99153563110528       -0.01150765712699
H            5.75090852245539       -0.09981500037038        1.07593817540692
H            5.12147577965467       -1.43599795813862        0.12495377814522
C           -4.76048419766960        1.79583586227909       -0.94412994610001
C           -4.77492640169411        2.98168456899078        1.27559177099066
C           -4.54838012855886        4.27140964088540       -0.83779020991809
H           -4.58326348162047        0.84145404884716       -0.45828117957509
H           -5.83463036161554        1.92678307552605       -1.04953310233668
H           -4.31875054310695        1.76140160945514       -1.93807422836119
H           -4.61385772156445        2.03980576549070        1.78997783286313
H           -4.32924941502096        3.77987859196182        1.86560963635388
H           -5.84653867015189        3.15527525929020        1.21542968965140
H           -4.14607927466518        4.30640217290162       -1.84735263782444
H           -5.63133630875812        4.33964680827434       -0.90614593165912
H           -4.19555617377963        5.13417053362358       -0.27800734510836
