69
 energy: -114.125356142654 gnorm: 0.000814927919 xtb: 6.5.1 (b24c23e)
Si           0.41670819386224       -0.54724716532431        0.39905647971602
O            1.57772110497905       -1.63636446731486        0.64620353353636
C            1.79816230429154       -2.96758023504744        0.25996652187814
C            3.18053157553751       -3.11812097551259       -0.32194976925876
H            1.05064671904395       -3.26937439498300       -0.48344486044588
C            4.17659883419445       -2.19289390852532       -0.04451318131537
C            3.47036461896263       -4.21313418614581       -1.12697709547712
C            5.44607791933488       -2.35906859503549       -0.57030563977618
H            3.94442029943505       -1.33952042735911        0.57369422288884
C            4.74147990158217       -4.38121798421372       -1.64475711487206
H            2.69390114783675       -4.93109622357079       -1.35186033884886
C            5.73238077268189       -3.45361653247701       -1.36772715456024
H            6.21418721694452       -1.63070576332593       -0.35479852040279
H            4.95850069524921       -5.23543519149644       -2.26975316721084
H            6.72398952829603       -3.58360627469452       -1.77626169735936
C            1.64255529026869       -3.85773644328473        1.51077846210412
C            0.28410278285532       -3.78572987395615        2.00277946478820
H            1.89821451562851       -4.88847581407620        1.25398596027558
H            2.33116697922284       -3.49755198692757        2.27970053935330
C           -0.85015811312548       -3.67018506948027        2.36434053206092
H           -1.84242006235964       -3.58007010812455        2.69032493673741
Cl           1.36986335740060        0.64554604583918        1.89482158155577
Cl          -0.73417948169125       -1.77738963481541       -1.00658715126617
O            0.55854087483505        0.60922389291413       -0.86882564649714
O           -1.05096715738611        0.05557226586049        1.11208495522555
C           -0.96044400304078        2.37570037395785       -0.46038355172702
C           -2.09417250426913        1.51627701598617       -0.41199109065916
C           -3.15678840495429       -0.49191289298997        0.32324480436435
C            1.40393335531442        2.71826297784895       -0.45352283522524
C            1.31519489362269        4.07846104599456       -0.29092996811109
C           -1.09017070961884        3.77641002587301       -0.41673275342698
C           -0.00418664290418        4.59824497535867       -0.31916143513530
C           -3.30049687024067        1.82895902290758       -1.06567585685933
C           -4.36367099230105        0.97192428399343       -1.06717694554762
C           -4.31949418940403       -0.26169759385722       -0.36994646419865
H           -2.08508211708780        4.18953522950762       -0.38101455977227
H           -0.15762169942401        5.65988718810378       -0.24152496144483
H           -3.34251965955010        2.74308565547048       -1.63517430908262
H           -5.24706018931562        1.23652810354144       -1.62071368377898
C           -5.44875006407189       -1.27777098940962       -0.37588018559502
F           -2.98927391742390       -1.53765686743701        1.11892846602031
N            0.33428936540263        1.90915822592910       -0.57442426987543
N           -2.10759968151147        0.35032840540098        0.32507284716507
F            2.55813651048103        2.08278763274395       -0.58441423342089
C            2.55455422631344        4.92956067634256       -0.07549272441262
C            3.47562102927230        4.82989996934928       -1.30007954190298
C            2.19518265401888        6.40243163122421        0.13850219031207
C            3.28016600094624        4.42005890890193        1.17831215674465
H            2.94706907659827        5.14076267891649       -2.19918986395469
H            4.33505591958029        5.48170813764722       -1.16402526327979
H            3.84008290067022        3.81802183771685       -1.44308325829019
H            3.10610458713841        6.96675049567405        0.32229802287763
H            1.71313651356837        6.82436329568112       -0.74042646500086
H            1.54605444963168        6.52576760734287        1.00176813550610
H            4.16101059379582        5.02900104498091        1.36644874942693
H            2.62392545662537        4.47996117531429        2.04318207800907
H            3.59448672278252        3.38768534564919        1.06786715852742
C           -4.91184929270295       -2.60803028775139       -0.92366201046030
C           -5.97989002965785       -1.46591430896116        1.05288809790009
C           -6.60984819166182       -0.82362656430343       -1.26453524805916
H           -4.11599700605648       -3.00669527087224       -0.30327180968428
H           -5.71407225288041       -3.34097685086303       -0.96274472023526
H           -4.51791156598287       -2.46946760876881       -1.92775059930145
H           -5.21868799430858       -1.87147464512065        1.71122512392255
H           -6.32061206222656       -0.51549778230495        1.45924675194881
H           -6.81953441223872       -2.15654021153102        1.04284636294063
H           -6.28451828307912       -0.68219128767082       -2.29217981249888
H           -7.38066632964008       -1.59042371335370       -1.26065192976374
H           -7.05420100809762        0.09779595891480       -0.89518044779155
