69
 energy: -114.123352680816 gnorm: 0.000680772562 xtb: 6.5.1 (b24c23e)
Si           0.11246829109285       -0.84133272570435        0.96878750299132
O            1.35310546293140       -1.81610592804966        0.51966788827539
C            2.74202244830817       -1.62279226831809        0.45876318459656
C            3.33545883439988       -2.62838536392110       -0.49980178480473
H            2.94448536624064       -0.60872045360659        0.09163016585699
C            2.71861115097306       -3.85194714751056       -0.71688845107924
C            4.53508901982358       -2.34831134913285       -1.14216784289652
C            3.29033966339776       -4.78088706229590       -1.56830751831371
H            1.78295718206319       -4.06127692571427       -0.22249919893561
C            5.10835815816175       -3.27950372575460       -1.98901171048558
H            5.01945613115746       -1.39629971100269       -0.97409984156451
C            4.48673143653209       -4.49830261680894       -2.20437531522149
H            2.80010111412790       -5.72924706369150       -1.73429740697044
H            6.04150134492810       -3.05305401510141       -2.48469673284599
H            4.93391841750622       -5.22408052114305       -2.86795494544369
C            3.40131295745943       -1.79278567136386        1.85136136851669
C            3.61307116367924       -0.52674050071951        2.51539807994583
H            4.36479270523021       -2.29694739765175        1.73349704312789
H            2.74958209063165       -2.42264196755239        2.46037246948682
C            3.81347470441682        0.53476236400747        3.02960308883197
H            3.97388742525455        1.45423413104534        3.50694509278116
Cl          -1.20192133986658       -2.14169011715675        0.05595050934939
Cl           0.44196426498341       -0.64622587795899        2.97183564941308
O           -1.40775463315445        0.31913099440861        1.40228043412910
O            0.57963072003242        0.40635989654815       -0.10946297118470
C           -2.12751951721069        1.43059171705319       -0.52033354895595
C           -0.94717743465115        2.21382529346729       -0.53901618221974
C            1.31468149862556        2.57059754643493        0.14506755812295
C           -3.45305776896797       -0.23473764846618        0.53068352540018
C           -4.48113783294736       -0.15041751040262       -0.38387230907020
C           -3.17416689131149        1.58771960771251       -1.44936553343991
C           -4.29786901527356        0.81263220369029       -1.39811318105093
C           -0.94354799859633        3.55488415629069       -0.97153023991617
C            0.12929338350466        4.37516755349750       -0.78840286219678
C            1.31320213077698        3.90501412626794       -0.15000406094170
H           -3.04437734354852        2.29942303051219       -2.24761662478491
H           -5.05411832596471        0.94288441283281       -2.15208804397626
H           -1.85104129315947        3.94666248700355       -1.40076868893079
H            0.07016181308492        5.39908764503805       -1.11032611317383
C            2.50467263469076        4.79270647814532        0.17186974163067
F            2.37977416079369        1.94671616374465        0.64421366559361
N           -2.33304866224211        0.50449324148069        0.47249649861257
N            0.27028450324734        1.73461099729166       -0.07015730222228
F           -3.51306314105598       -1.01459841803263        1.60038455821258
C           -5.69295182084173       -1.06080230069347       -0.29114119329326
C           -6.42821797764836       -0.81295590419787        1.03395187380452
C           -6.67469832774966       -0.81022800999443       -1.43929608698314
C           -5.21659063977195       -2.51834587030010       -0.36985382559227
H           -6.72454631319731        0.23126123143773        1.11413771689868
H           -7.32356974308970       -1.42834203302520        1.07509710502160
H           -5.80747996840655       -1.06517281484112        1.88726098561148
H           -7.51510832359365       -1.49324643468585       -1.34299199502376
H           -7.06472151077362        0.20476872995042       -1.41233976674157
H           -6.20573266457383       -0.99244351350355       -2.40299339335794
H           -6.07269571055834       -3.18739596473760       -0.33074352345257
H           -4.68200311934919       -2.68947288670954       -1.30105491563253
H           -4.54948834145416       -2.76610522926422        0.44885543068632
C            2.79867623649428        4.71606670381992        1.67689697695874
C            3.72671655006798        4.31635103090748       -0.62723215343293
C            2.23011945139376        6.25485995510174       -0.19012570741584
H            3.07239875017721        3.70982303404932        1.97676788448926
H            3.62420048901612        5.37939667700768        1.92405845969188
H            1.92567828004986        5.02381997627615        2.24883366381746
H            4.01966845622475        3.31035442199385       -0.34318293602383
H            3.50960644843103        4.32753169701537       -1.69344682163219
H            4.56831943886189        4.97892469807361       -0.44059816603603
H            1.36440620723696        6.63602655411132        0.34633280513957
H            3.09048581612796        6.85816842000942        0.08949641268859
H            2.07374735682479        6.37468277277120       -1.25949544444981
