69
 energy: -114.124928582803 gnorm: 0.000456201400 xtb: 6.5.1 (b24c23e)
Si           0.29391775357839       -0.72947759072567        0.42933286034394
O            1.63876731300445       -1.53299046194358       -0.04294906770170
C            1.95206051146649       -2.89513966586288       -0.02075045954814
C            3.32162010091488       -3.10496963674711       -0.61606922492525
H            1.20020866669094       -3.44447854251359       -0.60874213995302
C            4.28683423107006       -2.11278798462263       -0.51897606523795
C            3.64171718336379       -4.31175553136151       -1.22399627478603
C            5.55561302392455       -2.32418859539471       -1.02867702782118
H            4.02533535292001       -1.17541437271257       -0.05314420583526
C            4.91263315849337       -4.52366058862539       -1.72743583558432
H            2.89070099058277       -5.08542666378042       -1.30462221820895
C            5.87240493787591       -3.53007020376845       -1.63041252059011
H            6.30103274105784       -1.54574360168032       -0.95333502266377
H            5.15392234462107       -5.46518739894404       -2.19935526665280
H            6.86407313565711       -3.69579850092558       -2.02591512502266
C            1.94273683311327       -3.44842154276012        1.42300629330517
C            0.59800469953787       -3.49409792562033        1.95060529274886
H            2.37651543696411       -4.45160305137008        1.42014746028881
H            2.55716004704565       -2.79215399895987        2.04483692490063
C           -0.53568112355117       -3.49877434111827        2.33495681636965
H           -1.52520200977034       -3.49852860611611        2.68239262551577
Cl           1.02687399033226       -0.20137796441532        2.30400853833404
Cl          -1.03079984632040       -1.97008732916909       -0.67826014857071
O            0.54497091364835        0.53952888625011       -0.68533010115240
O           -1.18788492368807        0.16387535436355        1.11209522337597
C           -0.97882945883719        2.36711319929266       -0.52749543811535
C           -2.14429803598238        1.55992773434797       -0.50394724339260
C           -3.31051311494990       -0.32590359517491        0.36022887517742
C            1.36454700292472        2.62403607254942       -0.13923430497769
C            1.32462791993681        3.99357977693913       -0.13757714287147
C           -1.03536675279460        3.76851159164590       -0.66011460685459
C            0.06225459418526        4.55596389499792       -0.47306506440201
C           -3.30575870873831        1.85683259982104       -1.24280710256011
C           -4.40437333796938        1.04656328751594       -1.20597367788451
C           -4.44392327119652       -0.10711100887690       -0.38941157147587
H           -1.99626297459983        4.21874462529942       -0.84784997145155
H           -0.03794262332478        5.62326802095786       -0.55499431365884
H           -3.28802772674524        2.71561439346202       -1.89335705578330
H           -5.25446176273043        1.29374638266756       -1.81716239576980
C           -5.62259314055336       -1.06348746589819       -0.33350509237292
F           -3.22230525446934       -1.29958423088651        1.25525960100808
N            0.29335244178082        1.83664391085473       -0.37948978396058
N           -2.22007720309491        0.45761182717260        0.31517856776294
F            2.48517174442903        1.93820551612029        0.04725555509877
C            2.55462894206042        4.82322095950434        0.19223794665889
C            3.64885500789933        4.55464382846428       -0.85139053515220
C            2.24005020733073        6.32185095965400        0.18634755855321
C            3.05479931069990        4.44109624684475        1.59296353078388
H            3.28505475876187        4.78811542902330       -1.85002242299172
H            4.51341700067658        5.18069054891267       -0.64492847590281
H            3.97020852979963        3.51831965703462       -0.83291435873390
H            3.13541131361124        6.87380497178364        0.46139065090391
H            1.93254991313471        6.65775870819474       -0.80108039391423
H            1.46331988029159        6.56247896841974        0.90808765366598
H            3.91336184708234        5.05439017029098        1.85557510170113
H            2.27328678844414        4.60741103907267        2.33117627013736
H            3.35586615630295        3.39974739158753        1.64138899054619
C           -5.14336217262676       -2.45599731017376       -0.76832127820850
C           -6.18181435006347       -1.11560477174940        1.09597158927887
C           -6.74956156614642       -0.62465162534178       -1.27248979410134
H           -4.36367548659987       -2.83342800078691       -0.11505226689422
H           -5.97593531358063       -3.15501504187167       -0.74869628921484
H           -4.74468949529614       -2.41765066394437       -1.77934710203156
H           -5.45543969431397       -1.51640565993203        1.79500201840436
H           -6.47081762810397       -0.11986808900080        1.42677868312803
H           -7.06094313953850       -1.75479975405739        1.12108492271796
H           -6.40995480006530       -0.59051020516172       -2.30467770912358
H           -7.56204693150957       -1.34464371796107       -1.21251574948209
H           -7.14395987805442        0.34843128691345       -0.98866470516751
