69
 energy: -114.134269532348 gnorm: 0.000749479761 xtb: 6.5.1 (b24c23e)
Si           0.07800720673990       -1.31737457877197       -0.12674166689239
O            1.46224612594726       -0.70412659352914        0.48082049795842
C            2.41947518238290       -1.33279533411394        1.30196265365187
C            3.15467045627657       -2.41602364157255        0.55691729907397
H            1.90936451094920       -1.76488529187053        2.17062691263327
C            3.49378410382376       -2.22935601791898       -0.77600479256484
C            3.49793676631578       -3.60137675931815        1.19049659076685
C            4.16252879699388       -3.22092341791839       -1.47046900652421
H            3.21017793318125       -1.31372866011726       -1.27328502413831
C            4.17340295429591       -4.58908460882656        0.49658092357713
H            3.21923892341160       -3.75526559745042        2.22248559706617
C            4.50606841490726       -4.40120662876705       -0.83432135578198
H            4.41114344111792       -3.07246122391420       -2.51092150809131
H            4.43096323801694       -5.51285452693121        0.99347951604180
H            5.02514883677958       -5.17760446410355       -1.37716350575632
C            3.40607790271932       -0.24791560887197        1.77143478672723
C            2.70158269213901        0.83995559134651        2.41263348966299
H            4.11913877878674       -0.69570056325608        2.46737294206633
H            3.95070675791817        0.12976348345374        0.90296509383576
C            2.06954346074075        1.72942389755971        2.90450332259697
H            1.53642432396946        2.50635732404523        3.36501469871241
Cl          -0.08668133305930       -2.24816962576468       -1.93375701306838
Cl          -0.02782641770349       -3.07409479404827        1.06522393985975
O           -1.30205227764782       -0.78850466844353        0.74677750872223
O           -0.05982922458457        0.25105690581888       -1.13038245783451
C           -2.06109166941709        1.44875955870746        0.33901920205615
C           -0.77649742282073        2.02764195179113        0.21730633611317
C            1.41225339949613        1.96848326013743       -0.70252756850323
C           -3.48666857863930       -0.45385459692369        0.10875932436089
C           -4.64276691842416        0.27843136857288        0.06337836209908
C           -3.23678971369798        2.22444104608918        0.41996121659811
C           -4.47652150890136        1.67179152086296        0.29608124008285
C           -0.44583304157147        3.29174084136169        0.74774025547882
C            0.77729605310844        3.85912398821468        0.54224235808486
C            1.77205832545606        3.20833472954009       -0.22270245700367
H           -3.13355863182138        3.29232823961226        0.51942846308497
H           -5.34181444285749        2.30827245776341        0.34288121352039
H           -1.17893225499495        3.79368262447607        1.35730286406932
H            0.98565411129411        4.82057151927735        0.97756513344671
C            3.12008059553283        3.83230954067362       -0.54632350374998
F            2.22511597312493        1.23675874269164       -1.45418681539459
N           -2.25870620760594        0.07681746113661        0.31207189985627
N            0.20593302572304        1.40723867722969       -0.51911859791891
F           -3.46822435244402       -1.77603232713424       -0.00835057543556
C           -5.98841531749093       -0.37501608708586       -0.20615298178715
C           -6.29601056007534       -1.38974722301657        0.90469684077618
C           -7.11846700083778        0.65764797809624       -0.24169734703979
C           -5.93845078356181       -1.08261048179289       -1.56792647285346
H           -6.29433671052049       -0.89925729161349        1.87589007053271
H           -7.27845382919853       -1.82567753580454        0.74098100609920
H           -5.56859427105613       -2.19470425731425        0.92181272107700
H           -8.05500035461022        0.15159144655736       -0.46256866371712
H           -7.22845140228267        1.15612171106535        0.71823829682554
H           -6.94828119309046        1.40033174480202       -1.01729519199001
H           -6.90866616501660       -1.52054316841487       -1.78936428946747
H           -5.69376881132020       -0.37182878628752       -2.35448476557816
H           -5.20008114979916       -1.87771172735483       -1.57842922588105
C            4.25522953855030        2.91706318542029       -0.06931869274810
C            3.21613868499070        4.03798422021244       -2.06624894891906
C            3.28745572563097        5.19262558133857        0.13633729519811
H            4.26223162801225        1.97932770148167       -0.61540821143618
H            5.21281971489249        3.40609239472376       -0.23219437374032
H            4.14604354763197        2.70783158034133        0.99266366274981
H            3.16654903457798        3.09329381475281       -2.59894904744767
H            2.40653378895489        4.67591769566428       -2.41532111415007
H            4.16131589890168        4.51556337977476       -2.31257692511719
H            3.23606361300686        5.09509609681237        1.21800220676559
H            4.26362027331581        5.59940144009722       -0.11645891434495
H            2.53497980543758        5.90130838675230       -0.20150672695295
