75
 energy: -120.464612820143 gnorm: 0.000485232376 xtb: 6.5.1 (b24c23e)
Si           0.17349786487647       -1.15922661987031        1.35176697066043
O           -0.93529439355288       -2.06897609142273        0.62714237616765
C           -1.21432854947056       -2.43134059205775       -0.70532097244899
C           -2.67773441045528       -2.20537829533015       -0.98744359178548
H           -0.59882018280867       -1.83160459256694       -1.38074544036951
C           -3.61783845498422       -2.37042021321807        0.02114995668661
C           -3.10162436236340       -1.86790397288468       -2.26616585196084
C           -4.96476621510916       -2.20400231374954       -0.24869519367559
H           -3.28136958960547       -2.61386720584511        1.01709847304559
C           -4.44943215992078       -1.70779696296273       -2.53535705473331
H           -2.37125548528513       -1.73262092969286       -3.05191443383095
C           -5.38391910966539       -1.87833543609660       -1.52775669337892
H           -5.68944833527032       -2.33182551903253        0.54189408146429
H           -4.77130681720834       -1.44849283859521       -3.53383541423613
H           -6.43569458472583       -1.75294558200773       -1.73905448924691
C           -0.86843621705474       -3.92237446588777       -0.89035703703921
C            0.55414188218769       -4.13367771353832       -0.73241033121743
H           -1.18933650091231       -4.24307882355971       -1.88501813059244
H           -1.41026259934774       -4.49914306948913       -0.13620678322888
C            1.73460488891658       -4.24904824156129       -0.57779778000893
H            2.76797971747908       -4.36185409239473       -0.44273278637287
Cl          -0.48195203532229       -1.71034396042574        3.25282337210067
Cl           2.15597724778097       -1.58723900311827        1.68952382328901
O            0.70243258848763       -0.44885944230004       -0.45982738434012
O           -0.16108316223197        0.47964601603822        1.70580213523596
C            1.55581530858192        1.69957991026526       -0.10612265224979
C            0.20280759509258        2.14538759724630        0.03953923137839
C           -2.00346364805636        1.52179627685418        0.75857809071756
C            2.95501936350219       -0.11686501699580       -0.74049032108029
C            4.11579688175289        0.62001946757923       -0.65474535602245
C            2.71330267637995        2.47957884565118        0.07611432214497
C            3.95045106185614        1.93713057313764       -0.18716609022322
C           -0.37574364522023        3.23064001992272       -0.64339678817337
C           -1.73629954081340        3.43101359151704       -0.58855350064865
C           -2.61429757028857        2.54947954491754        0.09564829425816
H            4.81828971863667        2.54805388565712       -0.00797752882327
H           -2.14947643784229        4.25474234871316       -1.14298266035930
C           -4.12731015304694        2.69704564814086        0.08421735580665
F           -2.66815267198957        0.60142515739488        1.45060233583705
N            1.74156722890991        0.37535302988183       -0.44957675320189
N           -0.66167679861572        1.36292531433222        0.79610916776323
F            2.92910454942912       -1.37005154901613       -1.18022905264139
C            5.46413659597287        0.00374044852852       -0.98500699065990
C            5.47035070103406       -0.46266446565851       -2.44834834496501
C            6.60543561908985        1.00714730365033       -0.79816901330236
C            5.70641113820798       -1.18709414810467       -0.04710626132893
H            5.26377504270110        0.37363536173498       -3.11387220005234
H            6.44775153816197       -0.86756440376331       -2.69938953369506
H            4.73075901890220       -1.23711281470884       -2.62367263627411
H            7.54559909485065        0.52944009495007       -1.06303337950383
H            6.47752805571340        1.87519057271871       -1.44111585519221
H            6.67726626523119        1.33122688369773        0.23697253812839
H            6.68143217382450       -1.62368639329054       -0.24972600693146
H            5.67743107870241       -0.86154706655917        0.98989327967848
H            4.95185362827973       -1.95517068326465       -0.17692969837697
C           -4.75086024942097        1.43920581187924       -0.53665206300167
C           -4.62884749139075        2.87742113343212        1.52450463755382
C           -4.57289805228346        3.91138705977764       -0.73511407748048
H           -4.54144400206556        0.55401418707440        0.05493754786090
H           -5.83014836663699        1.55483017344393       -0.59915769800494
H           -4.36347527487778        1.27693099081569       -1.54053855216540
H           -4.40295208944312        2.00979077589750        2.13608330233941
H           -4.16797042291078        3.75247938849917        1.97874075853896
H           -5.70709229187572        3.01772117477070        1.52296511130207
H           -4.26955410333153        3.81679661288785       -1.77506821558904
H           -5.65788327077946        3.97809803148927       -0.70863654524293
H           -4.17114523865011        4.83422611079950       -0.32325997139539
C            0.44326023179560        4.11623169426434       -1.53415331413652
H            0.69651958258670        5.04441152014621       -1.02505337601483
H            1.36132612257722        3.62520831269608       -1.84116351339970
H           -0.13133272435041        4.37325611045106       -2.42096793249623
C            2.63051237664443        3.85018332439897        0.67851682287540
H            3.33523140464505        3.91805112518099        1.50516775840342
H            2.90067842697672        4.61582123666263       -0.04647915458886
H            1.63369753941277        4.05202385185270        1.05693166243956
