75
 energy: -120.462118536048 gnorm: 0.000994346215 xtb: 6.5.1 (b24c23e)
Si           0.43336715858842       -0.78580291521914        0.12195207017389
O            1.55558306102719       -1.94015082418302        0.00942478697719
C            2.71918530250410       -2.25136633315663        0.73130062675406
C            3.84801862600854       -2.55590037976839       -0.21898907224080
H            2.99415777104692       -1.40701728365720        1.37368969308965
C            3.59125457745779       -3.07323967853635       -1.48107241933464
C            5.16252520070395       -2.34873344236180        0.17932694644638
C            4.63661197820013       -3.37305729897285       -2.33673607020244
H            2.56784403258384       -3.22359932973811       -1.78845386671964
C            6.20646059731989       -2.65708502487327       -0.67409945458182
H            5.36504441116953       -1.93943339636153        1.15932889103716
C            5.94541933565582       -3.16888153945867       -1.93451007552049
H            4.42821408660349       -3.76975865773258       -3.31999616814363
H            7.22620181049268       -2.49184031121608       -0.35728688331492
H            6.76143134219480       -3.40487528490221       -2.60208702784670
C            2.42382872547936       -3.48201473353101        1.61464757359033
C            1.36230650025079       -3.18015800480368        2.54983034528946
H            3.33350587645925       -3.76543706572775        2.14969145531933
H            2.11506228668261       -4.30764723875608        0.96763410447959
C            0.46334365656979       -2.86951884949850        3.27607470902637
H           -0.32017169907399       -2.61996165221707        3.92665231182295
Cl           1.45621932450014        0.38186099820151        1.65557943630217
Cl          -0.71301344632515       -1.97931290172223       -1.25409972439190
O            0.39625372597906        0.48363015490641       -1.04080011785608
O           -0.97678308833483       -0.32561315278900        1.03447078505070
C           -1.15979644907679        2.08548186284698       -0.26199923316527
C           -2.21392119963842        1.10716009696111       -0.36652448977256
C           -3.04678974234660       -1.04114760779881        0.28957671289845
C            1.17980408047485        2.57608932720865       -0.45235932684298
C            1.04746440831251        3.86474918184242       -0.00432309550203
C           -1.35084058605534        3.40115424700872        0.19179500026743
C           -0.27378232266951        4.25173570094706        0.31780130679447
C           -3.37164108966241        1.26922969283315       -1.14350851212948
C           -4.32541221637715        0.27463905217529       -1.17500633513295
C           -4.20362782441615       -0.92394484327098       -0.43771716794291
H           -0.45109341472414        5.23535744825756        0.71605553007414
H           -5.17654119571735        0.41237317296300       -1.81865138647272
C           -5.22965531246500       -2.04345593138059       -0.47234685812342
F           -2.77280327388637       -2.07972978823162        1.06692111937937
N            0.13542224103170        1.73851548954469       -0.60502257678023
N           -2.11364022332424       -0.07242653947935        0.34827501336642
F            2.33473317125020        2.05182889515132       -0.84012459192742
C            2.25736475255979        4.76692894688796        0.16929674181717
C            2.94758073404544        4.96431264584973       -1.18816457832589
C            1.86344152033984        6.14305173352155        0.71258523982965
C            3.22257539052560        4.10892802167520        1.16542362277722
H            2.25373342503664        5.39500942205606       -1.90772088824795
H            3.79014481877177        5.64210647631245       -1.07512145621962
H            3.32187092023931        4.02612426177034       -1.58473947373961
H            2.75786669977685        6.75267006392321        0.81619078870855
H            1.18499115516269        6.65654841127034        0.03477544261239
H            1.40154929618629        6.05950624525625        1.69326658264218
H            4.07381554199849        4.76244130598932        1.34046371901422
H            2.72031417333430        3.92823146577046        2.11270539066203
H            3.59180418181120        3.15844173357040        0.79496019350935
C           -4.55626485958115       -3.30965165964411       -1.01946716061699
C           -5.76123904973086       -2.29361101921977        0.94661350859653
C           -6.41643137470518       -1.69572790317529       -1.37485494025863
H           -3.75506689730758       -3.64685359778739       -0.37075040177729
H           -5.28866401181689       -4.10881843758380       -1.10587051760254
H           -4.13063795433186       -3.11445273162163       -2.00052911897013
H           -4.97228813631537       -2.62471008990660        1.61391819112082
H           -6.20344111109547       -1.38537617729995        1.35230911283270
H           -6.52599651645250       -3.06609432070787        0.92043170596268
H           -6.09576134984023       -1.55020751010194       -2.40307583940438
H           -7.12667935226079       -2.51893145527198       -1.36052498479355
H           -6.93120283494851       -0.80342288018350       -1.02566041023100
C           -2.69536630243695        3.87269397052151        0.65926478468596
H           -3.12458632193365        4.57127334180512       -0.05692533779318
H           -3.38212197424011        3.04363011725499        0.79557932576694
H           -2.58634690814168        4.39653490336950        1.60631745659390
C           -3.54056036653835        2.45723310570716       -2.04298692882203
H           -3.81759566336778        2.11687557031580       -3.03868369002608
H           -4.33881406123847        3.10306280917538       -1.68066593705724
H           -2.62414076796556        3.03378991899555       -2.11558410744033
