75
 energy: -120.468917840006 gnorm: 0.000225892166 xtb: 6.5.1 (b24c23e)
Si           0.21452923254662       -1.36678336815523       -0.00602929589988
O            1.63456345456926       -0.72526686995743        0.46602913135001
C            2.65337350137445       -1.31304152767107        1.24024796260683
C            3.38256673894376       -2.37632276323268        0.46150524018211
H            2.20613437250327       -1.75606737808986        2.13732607998490
C            3.61878788665119       -2.19999622344821       -0.89475641925363
C            3.82272143524066       -3.53330058555907        1.08777802000572
C            4.28278037753051       -3.17350854071132       -1.61873582430638
H            3.25999932938004       -1.30666192485601       -1.38369427743068
C            4.49286750761858       -4.50282599108519        0.36375381826663
H            3.62388474562399       -3.67946637399282        2.13922969088650
C            4.72359683452262       -4.32511119565123       -0.98994637858009
H            4.45235228180282       -3.03358420733153       -2.67619250230429
H            4.82678577900564       -5.40455934040800        0.85567502000617
H            5.23950736591504       -5.08719805082537       -1.55555984818245
C            3.62473991749734       -0.19236068627567        1.65218273330415
C            2.91791712581484        0.85836077364633        2.35024361868085
H            4.40025214620844       -0.61492169976906        2.29528646891274
H            4.09357794358132        0.21349762523969        0.75281956461406
C            2.28184203152723        1.71425379267607        2.89388988530181
H            1.74714301919198        2.46348294416746        3.39618713610569
Cl          -0.17337588706378       -2.40658732397849       -1.72713388723885
Cl           0.22581726536962       -3.08091386668097        1.26383908974654
O           -1.06317033799740       -0.72227184331270        0.95915326050473
O            0.01192412140357        0.11558000787413       -1.12042748484923
C           -2.08602258560436        1.25872561963549        0.12227502197989
C           -0.81494442172477        1.91589651031105        0.12705063246654
C            1.40329329587997        1.92000524074728       -0.73640072435220
C           -3.25682348149692       -0.83131956996306        0.25191420864840
C           -4.46266685946772       -0.29464664197918       -0.11079709086627
C           -3.30037272678635        1.85764683866711       -0.26840130385203
C           -4.44505693143139        1.10062519694082       -0.35962542738178
C           -0.52521738364645        3.13830191439803        0.76730942820285
C            0.69770339040434        3.73490422726628        0.57631962094543
C            1.70154504993650        3.16795563475253       -0.23819095725298
H           -5.34720564226670        1.58500690727225       -0.68949792300826
H            0.89512105993533        4.66067493057440        1.08865451063586
C            3.00395794241910        3.87697238886978       -0.57423691456562
F            2.25554095072006        1.22401710560335       -1.48095977991188
N           -2.13665388572384       -0.09553182340042        0.41721845652133
N            0.21675051452481        1.31800159798565       -0.56851398778569
F           -3.08426436104445       -2.12156320779745        0.50802960066170
C           -5.70251432039879       -1.16152088307145       -0.25756977959627
C           -6.00739590741283       -1.83757970323268        1.08743909713696
C           -6.92491309433238       -0.33499151708515       -0.66645485517556
C           -5.45155991523641       -2.22404118651746       -1.33704569488148
H           -6.15050023539482       -1.08839667190564        1.86384605283139
H           -6.91843430917023       -2.42506317439378        1.00434568569082
H           -5.20514508040594       -2.50263499372093        1.39028445816165
H           -7.78806680576574       -0.99173272132167       -0.74222314201900
H           -7.14976747627577        0.42887164025539        0.07430855213393
H           -6.77696388507255        0.13395263076240       -1.63618569187891
H           -6.34758277013145       -2.82407876665884       -1.47608334542481
H           -5.20302443742696       -1.74963785236309       -2.28405790739861
H           -4.63903154314636       -2.88888302855767       -1.06221492461535
C            4.20692413872092        3.02760427300449       -0.14527445023207
C            3.04775871544400        4.11445064610047       -2.09201015609117
C            3.10492670822518        5.23279248125811        0.12988742305264
H            4.26205602278869        2.10579047966281       -0.71506151527180
H            5.12646880182616        3.58246873086349       -0.31675142454046
H            4.13652833441542        2.78626938144248        0.91296313273764
H            3.03289134224520        3.17683412222553       -2.63944421087192
H            2.19627971896870        4.71420088004061       -2.40793478368582
H            3.95938943598363        4.64545498848282       -2.35517195482402
H            3.10575885175081        5.11119894513179        1.21022268807639
H            4.03935576371243        5.71165251658892       -0.15258856888545
H            2.29103120269132        5.89254379308680       -0.16141135886484
C           -3.35588798337957        3.28933776082110       -0.71153496557205
H           -3.78631294256722        3.91781184373153        0.06584224028055
H           -2.36866062556596        3.66512930065763       -0.96013881650169
H           -3.99221447282132        3.37097120544373       -1.58978676714543
C           -1.49107848378844        3.74481509697673        1.74133674151690
H           -0.97241289141001        3.95924281344114        2.67387718045932
H           -1.88834089999102        4.68607653240969        1.36627078616829
H           -2.31377907046357        3.06914618394678        1.95148810172985
