75
 energy: -120.382787195069 gnorm: 0.000487242691 xtb: 6.5.1 (b24c23e)
Si          -0.61630704115913       -1.66837831654251       -1.06321173761626
O            1.52681724124594       -0.81841698617952        0.21828821352754
C            2.20776145126811       -1.60960178120213        0.84293753324703
C            3.25707214846847       -1.21712778207793        1.77612347730386
H            2.06160922247046       -2.69106288897753        0.72188934193600
C            3.43362799721417        0.12815677821743        2.11701908612475
C            4.10154247827047       -2.18141390412164        2.33064284332847
C            4.43758704191149        0.49781592293417        2.98837125673386
H            2.76275570818957        0.85953806240582        1.68962291561411
C            5.10888912503869       -1.80335614637593        3.19636451959936
H            3.95931448662178       -3.21990829952513        2.07100701579659
C            5.27936897710653       -0.46609134650423        3.52545370560094
H            4.57037753569061        1.53646699511724        3.25505759460797
H            5.76488865849741       -2.54868222035923        3.62075526566606
H            6.06698833001296       -0.17476084051407        4.20441450740029
C            2.53297853158825       -4.01361980645735       -1.81965114057237
C            1.60455365004344       -3.15141274080265       -2.09099523101524
H            3.51719026557093       -3.71018982023109       -1.49844728493753
H            2.35850847238355       -5.07282316698856       -1.91292782177646
C            0.66286014532750       -2.29911736726180       -2.32966650758490
H            0.56499501016971       -1.88752820827081       -3.32436570086509
Cl          -2.43435271503056       -1.91729179540866       -2.02955245840793
Cl          -0.44535552984340       -3.33903499237225        0.23092456214511
O           -1.14710224249788       -0.81301915608064        0.39310032288601
O           -0.47479589568608        0.05143112514419       -1.84636964734405
C           -1.68666522738876        1.47471164766504        0.06875459000655
C           -0.30455610077604        1.72345671948386       -0.22915550228964
C            1.55132119636983        1.11506623439422       -1.58407690821518
C           -3.35606155049585       -0.17227400874113        0.52721957805932
C           -4.38947969898000        0.73017544754380        0.51252559245573
C           -2.70585044882942        2.44291536702478        0.04397991550650
C           -4.01351016706486        2.06897029159192        0.25392402510325
C            0.52116846267874        2.65189920908079        0.42646602441985
C            1.83510567029177        2.79067614633835        0.03939457121450
C            2.40034017113556        2.02994835952543       -1.00677489621197
H           -4.77477116368645        2.82608731709380        0.18455441419531
H            2.45265282448582        3.48592729370322        0.58191148419388
C            3.84227470425925        2.17095830744828       -1.46643635062507
F            1.92391179111078        0.32669478929556       -2.58732031382801
N           -2.06947544586852        0.17059390271164        0.32021790505570
N            0.26459603904551        0.96729765691122       -1.23262241907421
F           -3.52731516362741       -1.45638632619195        0.80573873496530
C           -5.82641276308281        0.28297812578241        0.72174478648180
C           -5.96789987642622       -0.35663329701283        2.11081209863481
C           -6.80310685234010        1.45914686110569        0.63401346297951
C           -6.19234326136369       -0.73338114054160       -0.36950228401177
H           -5.66295032806169        0.34561226602325        2.88466563339790
H           -7.00608306005370       -0.62932314536109        2.28410219356260
H           -5.36560117941663       -1.25485625468576        2.19900783610903
H           -7.81487232314504        1.09272193830734        0.78984320817631
H           -6.59500732922140        2.20351084176880        1.39939260134268
H           -6.76620230100154        1.92810900061656       -0.34618596590377
H           -7.22721769756365       -1.04508130515079       -0.25015134917730
H           -6.07559816663679       -0.28696277856254       -1.35451059981542
H           -5.56326618302109       -1.61626238864886       -0.32253687167011
C            4.57101487901020        0.82840762338624       -1.30994605342503
C            3.85578684201771        2.60752744830086       -2.93926809096238
C            4.59767253822788        3.22082709997289       -0.64654920469922
H            4.10338783577378        0.04654273122090       -1.89968842384204
H            5.60227110854617        0.93128768876885       -1.63996170341889
H            4.57174585239953        0.51780957271990       -0.26699177365762
H            3.40391492505677        1.85643543593572       -3.57938526846521
H            3.31264320589061        3.54268364667192       -3.06236346406472
H            4.88082620562681        2.75929394090228       -3.26886940588052
H            4.63941527392355        2.94183326305658        0.40364811100302
H            5.61894536151005        3.29059994879988       -1.01325843714700
H            4.13970310748818        4.20248431030058       -0.74352032100924
C            0.02914639003827        3.41557309422149        1.61979547963978
H           -0.12002842500737        4.46534788317131        1.37272445080439
H           -0.90431900328144        3.00459331631115        1.99111846260631
H            0.77145511331706        3.36742769175409        2.41416718995058
C           -2.41174621780539        3.86623227209376       -0.32561454132482
H           -3.17363528220927        4.22689222972258       -1.01303171508287
H           -2.43353858898600        4.50564072608224        0.55526082337885
H           -1.44064674573469        3.95770568049791       -0.80189394085899
