75
 energy: -120.464654125981 gnorm: 0.000729673261 xtb: 6.5.1 (b24c23e)
Si          -0.22411922193598        0.96629516020272        0.61753424997097
O            0.27270758472998        1.96832282047929       -0.55032836725075
C            0.26990129049593        3.37929340380522       -0.52350498577062
C           -1.12052989418620        3.90479793209600       -0.27486520611434
H            0.93854846985375        3.71802740635588        0.27769045507209
C           -2.20314353737853        3.31090952791880       -0.91008978336979
C           -1.33648386872846        4.96098156716427        0.59809796930138
C           -3.48772888321377        3.76114672432054       -0.66705415070130
H           -2.03589514112187        2.47452998302632       -1.57229581670777
C           -2.62181970556597        5.41546914156262        0.83455786147746
H           -0.49751869006168        5.41274153632126        1.10638895349189
C           -3.69903529817105        4.81563036565465        0.20474605051278
H           -4.32464023557028        3.28264388063927       -1.15406247922845
H           -2.78327381012990        6.23248496056698        1.52233625852959
H           -4.70276065518886        5.16451522817324        0.39925909427495
C            0.79004235937541        3.87124983869122       -1.88459850700056
C            2.18931236503176        3.55738922397535       -2.07208703866131
H            0.64880028363942        4.95394849837065       -1.94259423142841
H            0.20141970162942        3.39276343320431       -2.67097631207023
C            3.34827370605691        3.29634514060951       -2.21349485268327
H            4.36444989068091        3.07624887248788       -2.34926203264321
Cl          -2.17082790261031        0.59432116754701        1.25423864015904
Cl           0.17436486210781        2.21714004535454        2.31229767133448
O           -0.43988232976954       -0.21756747065860       -0.80925435505773
O            0.86367929321939       -0.16452600703205        1.30873334042111
C           -0.18984473653635       -2.39831382400696        0.02807966625738
C            1.22208589418299       -2.16566907004463        0.06468873622347
C            2.95695235328865       -0.54620483749807        0.41698509211198
C           -2.29653256045748       -1.56868464115539       -0.71719506952960
C           -2.98627092406903       -2.69746413690491       -0.34065804403193
C           -0.85414119504814       -3.54700899730860        0.50016009219284
C           -2.21280589246224       -3.67185654730922        0.32321878593297
C            2.19794483975025       -3.02321142741750       -0.47985609061518
C            3.51196365879996       -2.62013917427778       -0.53949412376861
C            3.94131395114373       -1.33949319129075       -0.10724761993643
H           -2.69695220636627       -4.54351172711057        0.72846545293970
H            4.22642814126026       -3.28803926161400       -0.98747957507107
C            5.37569325584666       -0.84951204484663       -0.22287369363672
F            3.17640736609051        0.68200134137851        0.87104037697211
N           -0.97771357399253       -1.40656222453510       -0.52125587982540
N            1.67721258267436       -0.95166504235528        0.55630087755556
F           -2.86038505887492       -0.56176716884168       -1.37302129307898
C           -4.48215302404526       -2.82093007843699       -0.57356077535953
C           -4.77673019300742       -2.73678430635788       -2.07833825017644
C           -5.02732034956825       -4.15367721009697       -0.05323146743472
C           -5.19154310794099       -1.68128579431254        0.17128116891870
H           -4.24498627349269       -3.52130338499574       -2.61370619329530
H           -5.84260088751749       -2.86562472194269       -2.25001985207941
H           -4.48438824823835       -1.77587549679964       -2.48852591015670
H           -6.09416030872070       -4.20475266311767       -0.25670325473859
H           -4.55047259100283       -4.99622099926763       -0.54915168819032
H           -4.88956591347279       -4.24110145338505        1.02144464079527
H           -6.26758924845161       -1.77088903524472        0.04333634970746
H           -4.96083100149391       -1.72499795323404        1.23285062204270
H           -4.88103690096518       -0.70932919317348       -0.19694970481300
C            5.40993015481053        0.41607649272701       -1.09080085748899
C            5.91440233033861       -0.53913696229477        1.18156710760235
C            6.28425127984220       -1.90111976881956       -0.86551538280897
H            4.84501844192037        1.22266485313200       -0.63437751627690
H            6.43878502116626        0.74664567364608       -1.21556287233750
H            4.98891170473722        0.21008283169002       -2.07309300345280
H            5.34829420465176        0.25490257840535        1.65818540087890
H            5.86513905181287       -1.42610390074480        1.81015302089185
H            6.95226837077953       -0.22161161428762        1.11570051386788
H            5.95929315766007       -2.13721580502951       -1.87599358129338
H            7.29664086662603       -1.50851511325131       -0.92312349461603
H            6.31321905002844       -2.81239920149281       -0.27291340964739
C           -0.12830250062240       -4.57695160161171        1.31332796691021
H           -0.06312695982582       -5.52342259471867        0.77979639680289
H            0.87118802733229       -4.24180826414398        1.57018009934471
H           -0.68039342631379       -4.75662046002659        2.23392548841874
C            1.82089672750274       -4.32974785668017       -1.11153096950063
H            2.40604307765281       -4.47809141296894       -2.01610859734859
H            2.03666998527917       -5.15880506652532       -0.44019030859563
H            0.76679595411533       -4.35336292234146       -1.36860880312156
