75
 energy: -120.462894513157 gnorm: 0.000424597660 xtb: 6.5.1 (b24c23e)
Si          -0.21711984316607       -1.64722553304665       -0.42729618153864
O            1.37033132564564       -1.34441993732688       -0.31969670372529
C            2.58930666979841       -1.85857126019580        0.14363045482431
C            2.98826573024238       -1.19090777027057        1.43993880151133
H            3.31725136459913       -1.57822952924137       -0.63477180962807
C            2.03979485404694       -0.69106350781712        2.32027921997741
C            4.33701922344984       -1.06796808297301        1.75606189404160
C            2.43441014616574       -0.06341749831411        3.48933690799041
H            0.99092954154099       -0.79692643657192        2.09374095806288
C            4.72963108458365       -0.44810334523760        2.92813423110558
H            5.08205065287825       -1.46136589887302        1.07813084548902
C            3.77795357200232        0.06267939422000        3.79545302276874
H            1.68656633265401        0.32321661991401        4.16637023386701
H            5.78038140369190       -0.35937202464210        3.16323178822118
H            4.08459291494392        0.55245927243192        4.70815231300419
C            2.64030698140503       -3.39066693088286        0.28738276912190
C            2.29393034121256       -4.02290763943193       -0.96652517989237
H            3.65569704060178       -3.66901588337364        0.58134385488811
H            1.94143991781105       -3.71367624790028        1.06003278124411
C            1.98957021672351       -4.48421027971592       -2.02755024899777
H            1.71005998245286       -4.91471195810336       -2.94171212904314
Cl          -1.12413850452623       -2.51743511678875       -2.02360038084969
Cl          -0.44782466071790       -3.26696749594527        0.92469197764245
O           -1.12185980136637       -0.71859799010755        0.72010111195955
O           -0.28314804991833       -0.06366797745179       -1.52021959028986
C           -1.66818865089223        1.52138027662140        0.14347835849096
C           -0.27748349988808        1.77866763691166       -0.07607346551153
C            1.64292863408672        1.19520325943444       -1.35039871649087
C           -3.34180574361879       -0.18573346377383        0.34170883091967
C           -4.38697772386496        0.68873443643195        0.21682707624783
C           -2.70580735292904        2.46404639872181        0.02427558637388
C           -4.01736748416994        2.05140761743024        0.07924290986698
C            0.49707888513653        2.75290514941795        0.58149512376346
C            1.80931321004073        2.93970543227581        0.21736520639557
C            2.42298209616567        2.19336839533502       -0.80979574891628
H           -4.78720895815121        2.79210328263044       -0.04659092636476
H            2.38557318965236        3.67046802896454        0.75749379772560
C            3.84079741115861        2.44859521692181       -1.29552959987061
F            2.08375305534956        0.38311213345887       -2.30517787076595
N           -2.05069287436370        0.20756641804065        0.36675511661768
N            0.36697254676901        0.97704813885257       -0.99924313931557
F           -3.49984403740438       -1.49636519299660        0.48361722794527
C           -5.82650080898093        0.20068368644676        0.20191793185399
C           -6.13202066876240       -0.51266679914934        1.52738978794465
C           -6.81531262426009        1.35856516722765        0.04113496209648
C           -6.01832609058789       -0.76725519766010       -0.97447768678802
H           -5.96222500205239        0.15916462622872        2.36670572314841
H           -7.17268854281493       -0.82710042244656        1.54347133824203
H           -5.51253925548015       -1.39418735768622        1.65761068797700
H           -7.82809509239077        0.96320988471966        0.04383923373832
H           -6.73063036168956        2.06647067192500        0.86234022547058
H           -6.66281205718866        1.87832602762430       -0.90161858167726
H           -7.05595123445832       -1.08891881330775       -1.01940971834538
H           -5.76815649332565       -0.27622287266905       -1.91254369661436
H           -5.39547427440725       -1.65004529933886       -0.87185358510125
C            4.69371600092551        1.18808798082485       -1.10062449679664
C            3.79456235207832        2.82884360456298       -2.78331471014789
C            4.50283733983814        3.59497177635962       -0.52595033125930
H            4.33675737217916        0.36916942702835       -1.71704232978642
H            5.72426624421638        1.39528845034617       -1.37970049978796
H            4.67105272628567        0.87773226246389       -0.05783497986039
H            3.39248597738900        2.02137555608117       -3.38727421499593
H            3.17668445835043        3.71285945440249       -2.92926461108668
H            4.79860276149019        3.04854602514604       -3.13815663717348
H            4.59188743020708        3.35641088788463        0.53116670571761
H            5.50459932655677        3.75415059702426       -0.91772169102028
H            3.94717366948613        4.52235913344454       -0.64302959011873
C           -0.05107124859067        3.50693632827462        1.75581911075305
H           -0.19336544403690        4.55865681829834        1.51403157403651
H           -0.99627565947474        3.08704931515683        2.08472462246309
H            0.66003180263363        3.45186011923062        2.57792473774557
C           -2.41371932449636        3.90263811263969       -0.27991964527742
H           -3.14729337821163        4.28197969140552       -0.98730240448455
H           -2.48137743338970        4.50809106326607        0.62210529660141
H           -1.42232460686983        4.02041198721342       -0.70590223633669
