75
 energy: -120.464948200631 gnorm: 0.000479628003 xtb: 6.5.1 (b24c23e)
Si           0.15052934460575       -1.67186059752653        1.06458785045567
O           -0.64987690946551       -2.56230350613007       -0.02800041437587
C           -0.49431896472478       -2.67162331527787       -1.42709556145942
C           -0.97690846740325       -1.43904347238960       -2.14670165597257
H            0.56763767884481       -2.82557709374115       -1.64897057250594
C           -2.15918929266586       -0.82049683541242       -1.76464657338189
C           -0.24332924852241       -0.90658178798958       -3.19919879627285
C           -2.59067739032322        0.32235968923741       -2.41448401939153
H           -2.73138431354835       -1.23564395651853       -0.94760148116793
C           -0.67355938934004        0.23743606170797       -3.84571229945267
H            0.67820565123194       -1.38463392256464       -3.49813896554914
C           -1.84792719113719        0.85666273763779       -3.45232660337256
H           -3.51048106806816        0.80107267201090       -2.11291502112412
H           -0.09005563728790        0.64979229784459       -4.65630307571089
H           -2.18557011689640        1.75080595908579       -3.95645227719945
C           -1.29700937547253       -3.90414340705846       -1.88312021371119
C           -0.68062631701623       -5.12536335181142       -1.41141055002765
H           -1.34757158036834       -3.91240023024551       -2.97571247258035
H           -2.30890960315289       -3.82872124178352       -1.47852592738157
C           -0.13654737844912       -6.11426448544368       -1.01508050935040
H            0.31943910675947       -6.98958860086490       -0.66087496066890
Cl          -0.68116883158842       -2.76135656243873        2.64095838624002
Cl           2.10766516916801       -1.84154053793700        1.70274401038412
O            0.74856629073868       -0.59791696426295       -0.41928685056090
O           -0.44274620072692       -0.20131141300196        1.73944845637117
C            1.04312467418044        1.62439810910703        0.23743889096842
C           -0.38189064186358        1.73592653922695        0.33766655592936
C           -2.43428779066807        0.79326965994900        1.14627171373499
C            2.88360593911019        0.24541205004552       -0.38659837980765
C            3.82764762872777        1.20903425434166       -0.11647893829923
C            1.96424611319337        2.64251002413639        0.55569382189812
C            3.31206373597404        2.41786190025079        0.39440979703446
C           -1.15037933828334        2.75110365042325       -0.26420936445619
C           -2.51513957976865        2.77996920821306       -0.10203798938728
C           -3.21687151120255        1.79437962736488        0.64094943420246
H            3.99258163316355        3.19769728422023        0.68972297195017
H           -3.06829085260301        3.55783973870165       -0.59826874813380
C           -4.71609465133150        1.83573456747043        0.89474902412165
F           -2.92755642475891       -0.23414749038386        1.82898630670838
N            1.56821459728042        0.42404707563891       -0.19002034312402
N           -1.08777582810823        0.76274234694046        1.03183260801037
F            3.18260449202673       -0.93138174068063       -0.92720508353969
C            5.30883031227417        0.93696865624720       -0.31290033537047
C            5.58260003389612        0.62275059662907       -1.79090681533936
C            6.16359680686940        2.14249090141748        0.08735348628785
C            5.71023900133614       -0.25584984502408        0.56670224247264
H            5.26277711019182        1.45113027158928       -2.42050745536392
H            6.64833073038860        0.46869157697682       -1.94087912078688
H            5.06557904929071       -0.27653584274656       -2.10901825107263
H            7.21209698422269        1.90279856449017       -0.07176550253654
H            5.92396568768904        3.01517503937705       -0.51617301163558
H            6.03353971826092        2.38347818913322        1.13941497818692
H            6.77509794742603       -0.44893965574442        0.46190234266084
H            5.49644773448783       -0.04186102689624        1.61118148578930
H            5.17037289616883       -1.15593868389678        0.29207061944805
C           -5.39114079665310        0.55437871049049        0.38567227953580
C           -4.94251347584734        1.97091361400649        2.40885401884606
C           -5.37176047927818        3.03222999624362        0.19957650847286
H           -5.01395228606744       -0.32753728429702        0.89272349784368
H           -6.46185376660262        0.61189716868934        0.56730001935067
H           -5.23400108969973        0.43518081390160       -0.68402562005087
H           -4.55805688644911        1.10800151880905        2.94407797567689
H           -4.44818152274085        2.86332897100971        2.78797188532074
H           -6.00657462974634        2.05184514731249        2.61710255162291
H           -5.24795433000675        2.97855356987272       -0.87957281075025
H           -6.43775996055839        3.02784980667166        0.41375889232679
H           -4.96196910966746        3.97177114408745        0.56235083089303
C           -0.51914845077530        3.75299421168208       -1.18453036312300
H           -0.50699653984444        4.74289539783482       -0.73232655817900
H            0.49529055050165        3.46929825386953       -1.44410610010243
H           -1.10591959236785        3.81484185136466       -2.09857323723655
C            1.51293598487588        3.92480543463139        1.18815155890668
H            2.13691655080809        4.13758666810076        2.05375126667441
H            1.61720741593354        4.75786355886869        0.49533548473744
H            0.47887924142389        3.86237376520481        1.51160707644668
