69
 energy: -113.776342949110 gnorm: 0.000647994854 xtb: 6.5.1 (b24c23e)
Si           0.07433279714188        0.85915221559561        1.28681162869768
O            0.34970257561737        2.19949054120122        0.42573392423277
C           -0.09700313703367        2.62295581710511       -0.84055666936532
C           -1.56092322616300        2.98117788194012       -0.82219190043624
H            0.07175374625572        1.81831613975117       -1.56609165414756
C           -2.16844152732896        3.42337530689798        0.34399203614198
C           -2.31278305438461        2.88017949267600       -1.98626016988244
C           -3.51657541083082        3.73614944254529        0.35289913371271
H           -1.58436640582133        3.50561905558760        1.24798761833928
C           -3.65762103932158        3.20301278939042       -1.97890261475514
H           -1.84252934077105        2.53399658083660       -2.89645510903271
C           -4.26356766916410        3.62580783368125       -0.80712677169219
H           -3.98325583651599        4.06443255551208        1.26961555603330
H           -4.23654350364831        3.11441820581682       -2.88690163682701
H           -5.31657390969050        3.86628191429741       -0.79938329172153
C            0.74398377432042        3.85378748531815       -1.23183962367155
C            2.09206360984035        3.47374423708723       -1.59218129591543
H            0.26889561070625        4.35899970745216       -2.07710481540489
H            0.76915534823736        4.53393701209199       -0.37719567226585
C            3.19150469453357        3.11984657147547       -1.90469926030895
H            4.16533255860772        2.83932783764144       -2.17475358895632
Cl          -1.69928835872427        0.25416840704763        2.18060442837591
Cl           0.84302274697444        1.75511094766586        3.02707037273543
O           -0.46519778685422       -0.02815701256777       -0.33783034342617
O            1.26736306695404       -0.34474659272007        1.43733983185977
C           -0.12623278479359       -2.31948518314852       -0.12074052298855
C            1.27995935316941       -2.14136740198297       -0.11168398366999
C            3.18856526127444       -0.69157893294513        0.18016908672737
C           -2.32540496166177       -1.39949678323234       -0.35351853130256
C           -2.94769267476417       -2.63141428306838       -0.24217791155546
C           -0.72541046384251       -3.59076454853571       -0.05850796605365
C           -2.08090623378361       -3.73698667589636       -0.08688294244222
C            2.15827273930879       -3.08416306276161       -0.67449662726950
C            3.48412503237530       -2.81078434658555       -0.83591537881108
C            4.04218478286216       -1.55269100298891       -0.47171367622036
H           -0.08878831424845       -4.44927852294251        0.07499229087250
H           -2.49070333465810       -4.72614338868701        0.00892287408608
H            1.74937084564982       -4.01234457715553       -1.03812881860430
H            4.11127012230691       -3.55802724572452       -1.28609595155705
C            5.49833210687027       -1.22318410580948       -0.77558444061391
Cl           3.60424384865147        0.84842554220053        0.80638152452569
N           -0.98270102883458       -1.25306682343101       -0.25844603691015
N            1.88591826042746       -1.01622147020945        0.42081962877654
Cl          -3.12854204639727        0.07129282740863       -0.69035674540529
C           -4.45964746757523       -2.80997549638027       -0.27054102401066
C           -5.09630660929557       -1.98203562370307        0.85486668241809
C           -5.01741257364437       -2.39236056167842       -1.63890082320434
C           -4.86133348676205       -4.27272387890339       -0.04089672325836
H           -4.93796316531289       -0.91936896574220        0.71726396447500
H           -6.16755383749299       -2.16591339177637        0.88198475319062
H           -4.67080489772700       -2.26670309335277        1.81412712051861
H           -6.08753184161500       -2.58158905506307       -1.66769622814432
H           -4.85214749346283       -1.33951529852777       -1.83483542850711
H           -4.54402301787364       -2.97150046042859       -2.42895058899385
H           -5.94645919874359       -4.34212019002696       -0.04077680705625
H           -4.49000569468911       -4.91856448213330       -0.83309634289499
H           -4.50655352800710       -4.63400799788977        0.92103995006062
C            5.57997250025383        0.05052480329739       -1.62753124775168
C            6.27122571710604       -1.04116425319413        0.53841328484920
C            6.18539172457677       -2.34555306893876       -1.56379202804330
H            4.99012766445547       -0.06709013096851       -2.53439286297110
H            5.21450831792011        0.91010952432901       -1.07927702689538
H            6.61407184589947        0.23596369798796       -1.90872904598315
H            5.88487916587057       -0.20898808140960        1.11510509568624
H            6.20083651617415       -1.94308606016046        1.14213258584577
H            7.31986970145136       -0.85216199145302        0.32256667442140
H            5.68480894173961       -2.52847156322121       -2.51163021079602
H            7.20853994635589       -2.04682283001568       -1.77957605925381
H            6.22758193754981       -3.26826593848117       -0.99047564760628
