69
 energy: -113.775985657260 gnorm: 0.000344344683 xtb: 6.5.1 (b24c23e)
Si           0.41206545989504       -0.59234800010852        1.32353221279800
O            0.87121195995626       -1.92436699937175        0.53624068617073
C            1.46013711501961       -2.16750669999076       -0.71883647777278
C            2.69326248990974       -3.01884295618016       -0.54533288924961
H            1.73068570432593       -1.21884968649153       -1.19078889544080
C            2.82305051134901       -3.86415293599870        0.54731801681867
C            3.70664638446656       -2.96727531588509       -1.49412943409030
C            3.95567334542195       -4.64637038165457        0.69019980719946
H            2.04039349972045       -3.88742359259414        1.28977337148964
C            4.83501104398894       -3.75443286472580       -1.35254148611235
H            3.61178271499590       -2.30306407597719       -2.34237351128777
C            4.96160498573043       -4.59547719759436       -0.25938215407576
H            4.05248050789115       -5.29635359986585        1.54715938055691
H            5.62014665015548       -3.70655282729105       -2.09317422428834
H            5.84575918220010       -5.20555664073087       -0.14668337863745
C            0.42847502940095       -2.88545665371434       -1.61420790764707
C           -0.59626745462516       -1.96506132700308       -2.05329569885541
H            0.93933190288994       -3.30738486235587       -2.48360322651970
H           -0.02088889483118       -3.69759368175188       -1.03710317887211
C           -1.41271764981883       -1.16126375250448       -2.39923619632370
H           -2.13531617841388       -0.47068500685561       -2.71707748419676
Cl           1.70215918729714        0.74574134101419        2.25677067124828
Cl           0.02533804352987       -1.70796975695389        3.06249598013792
O            0.55258868831285        0.39497185731968       -0.29339569966241
O           -1.19930678761427       -0.04954021301834        1.41313154317256
C           -0.68025253566078        2.36009974528178       -0.12226032450766
C           -1.89852983880898        1.63698017311349       -0.11548796351550
C           -3.08059074541474       -0.45201937091921        0.12635754378580
C            1.70533247993728        2.38937075527558       -0.34064984232041
C            1.79094238325368        3.76689705052983       -0.25060932362948
C           -0.63160007031100        3.76639399526367       -0.07247390830492
C            0.55474251497471        4.43774692950715       -0.10627494300925
C           -3.08053170852282        2.16675205513655       -0.66661623187215
C           -4.19195045130704        1.39738351245928       -0.84331981915256
C           -4.20687148001060        0.01242291436918       -0.51418101794374
H           -1.55442622391123        4.30681345465985        0.05551301519093
H            0.53829475279925        5.50935084093171       -0.02210442969044
H           -3.07419186688747        3.18860993643127       -1.00828696112446
H           -5.06470377568890        1.84798282065502       -1.27947129003062
C           -5.40815213799593       -0.86302762531538       -0.84821121477253
Cl          -2.85646095898292       -2.04435404933456        0.70861138344717
N            0.53095807064480        1.72425188640729       -0.24609289072606
N           -2.01443978400603        0.35428316598721        0.39370266508790
Cl           3.02548537170063        1.35081885929278       -0.64163967502836
C            3.10903029377871        4.52773330804170       -0.28781544907647
C            4.02309775136275        4.03207398011677        0.84224321278818
C            3.78382477504700        4.34756883711274       -1.65545015118351
C            2.89876882500492        6.03217408304235       -0.07493235976143
H            4.33027439702691        3.00356181137633        0.69703946472174
H            4.91750077158390        4.64875960852942        0.88503730906420
H            3.50799360387724        4.10049647658312        1.79737554244026
H            4.70139494150502        4.92964805728669       -1.68707516454375
H            4.03243078408780        3.31029826250849       -1.84755626618012
H            3.12563366724772        4.69896974262418       -2.44738960358922
H            3.86732746644945        6.52629401338037       -0.08422037965334
H            2.29879984544572        6.46892144307419       -0.86985129925085
H            2.43327392208555        6.23341402539609        0.88662599304835
C           -4.98012520539186       -2.00796755481636       -1.77679959873593
C           -6.02416382511996       -1.41738609488391        0.44444921856179
C           -6.50568773928765       -0.07347145094349       -1.57357201093707
H           -4.61374649727561       -1.61101987904318       -2.72077839795566
H           -4.19929989116730       -2.61496359487053       -1.33436968089600
H           -5.83517517979584       -2.64631331578708       -1.98477812632905
H           -5.34524737121119       -2.08975069253575        0.95484964828358
H           -6.27772894987904       -0.60217227243611        1.11848604692677
H           -6.93366195631987       -1.96458919129858        0.20920455635610
H           -6.14242806799043        0.35223750628868       -2.50594160692529
H           -7.32152504166131       -0.75047580020173       -1.81546558276671
H           -6.90846675636763        0.71742547200437       -0.94554091285754
