69
 energy: -113.778231002970 gnorm: 0.000737259882 xtb: 6.5.1 (b24c23e)
Si          -0.42295695007159       -1.51961408613707       -0.51907013288714
O            1.16804823697735       -1.36858093390118       -0.19115096689537
C            2.10383093644015       -2.27728327199569        0.33040611399860
C            2.84585144968346       -1.67197032563099        1.49626479514963
H            1.57963184522894       -3.18253575985974        0.66103765277285
C            2.78764610914075       -0.31293987177243        1.76554316432476
C            3.63289013525580       -2.48539367008429        2.30391918160979
C            3.50913171470985        0.22929344857737        2.81516405439769
H            2.16486179635706        0.32115433941431        1.15559710530494
C            4.35687972349539       -1.94365050011985        3.34949588429373
H            3.66823288531340       -3.54865337147711        2.11727692713243
C            4.30094563005117       -0.58307353981479        3.60629281222891
H            3.44873944674643        1.29043239020101        3.01244985647693
H            4.96420856296089       -2.58524668128139        3.97072938916851
H            4.86667703117824       -0.16130867091104        4.42403577497326
C            3.10923716146148       -2.66199214923887       -0.77745958060312
C            2.41272545930388       -3.18039350274676       -1.93479118440336
H            3.68525137699034       -1.77591788605206       -1.05962993805163
H            3.79616434374557       -3.41583848927889       -0.38647174325159
C            1.78207232835915       -3.57547716983974       -2.87158109743306
H            1.23353480394593       -3.92722416551707       -3.69294485456372
Cl          -1.25024942507498       -2.23084407120620       -2.25032150692148
Cl          -0.80068319655055       -3.28244831122647        0.62787971421135
O           -1.38508280731305       -0.69994819101976        0.63602603985982
O           -0.31438206600413        0.08092198006913       -1.46238572541305
C           -1.49853432413022        1.66207242403557        0.43475964831458
C           -0.14753588815351        1.84090135806879        0.05094142041379
C            1.68432120448341        1.24248919942563       -1.37753876725756
C           -3.47648790724675        0.28546891264949        0.43861388932442
C           -4.31705324411587        1.35502483187698        0.65436368480917
C           -2.32142456115067        2.74147657124293        0.80676161718511
C           -3.67110880927172        2.59336401234263        0.92540891932511
C            0.66554060874676        2.86559223364619        0.57158624122719
C            1.95203675780165        3.03039673644112        0.15055918490820
C            2.52127597623631        2.21663754492712       -0.85773649564815
H           -1.87151405780406        3.71281093574312        0.92894545064333
H           -4.26103929379080        3.45083208651385        1.19274478590678
H            0.26664935030173        3.48724396952268        1.35553980014951
H            2.54407480683123        3.80306422986644        0.60655302207144
C            3.95765336674219        2.42338836961996       -1.31975198476583
Cl           2.07661518534459        0.18972029361302       -2.66411473477969
N           -2.12199302632344        0.42628289945531        0.42120519015350
N            0.42371747723928        1.05566354434595       -0.92261500197250
Cl          -3.96959497871272       -1.33901311306215        0.21175486728419
C           -5.83612575211038        1.25101708384057        0.61878472176803
C           -6.28493668801695        0.72976580911491       -0.75363528984842
C           -6.32639012053861        0.32217009448199        1.73823104813085
C           -6.50474064411150        2.61582633516067        0.82754518115859
H           -5.91519250251445       -0.27034339014984       -0.94434174672345
H           -7.37097084601377        0.70517304974613       -0.79697778857456
H           -5.92366242296176        1.38852491583872       -1.54016215986004
H           -7.41321644293746        0.29871411819991        1.74260901274367
H           -5.96410271754760       -0.69003781490860        1.60440831521234
H           -5.98566234354958        0.68780579155444        2.70430004387502
H           -7.58240179199134        2.49362029204673        0.74935958130423
H           -6.29063975215081        3.01888140747572        1.81429235107087
H           -6.19508662386922        3.32925351216478        0.06779290210248
C            4.76052397009374        1.12633428679300       -1.14205490401329
C            3.96917297529766        2.86842601374007       -2.78913629660786
C            4.66564787362600        3.51022833035113       -0.50089758290086
H            4.65896485226088        0.75571607192572       -0.12364194260754
H            4.42980537375101        0.35826922943465       -1.83137453634638
H            5.81305053030203        1.31946376653128       -1.33505127672994
H            3.53114320439538        2.11667781734878       -3.43568141029632
H            3.40976668357499        3.79424278477705       -2.90452794065820
H            4.99329947814225        3.04249785866843       -3.10953075699381
H            4.70540819998462        3.24673966076117        0.55323371924220
H            5.68833793322644        3.60736558150919       -0.85729953432207
H            4.18438739828750        4.47808281417783       -0.61863318288890
