69
 energy: -113.776712303021 gnorm: 0.000390100638 xtb: 6.5.1 (b24c23e)
Si          -0.22651803766928        1.04199225479047        0.86611305191497
O            0.42903770931927        2.00992069476963       -0.24468872971507
C            1.36031090151026        3.06013528162023       -0.15088354740036
C            2.67674558550481        2.60354344354706       -0.72707482271851
H            1.49049571767802        3.34169078514082        0.90124040365976
C            2.68989806597884        1.73923240978970       -1.81458786334382
C            3.87921939718932        3.02031668620800       -0.17316721660320
C            3.88992787511729        1.29258421746265       -2.33747351729148
H            1.74992433403384        1.40384206862926       -2.22679318022920
C            5.07957054669716        2.57624080859450       -0.70040968642217
H            3.87137599982462        3.68272955193927        0.68038105939746
C            5.08743634225828        1.71066508518022       -1.78129102000766
H            3.89193226322219        0.61453454240191       -3.17876164056658
H            6.01145679942821        2.89958094858477       -0.26014414373311
H            6.02480113471759        1.35776158309624       -2.18599078320418
C            0.80085635289134        4.26321772545014       -0.93263373333904
C           -0.44733511163667        4.69641503612046       -0.34143095011132
H            1.53121717283753        5.07591478076944       -0.91181395380100
H            0.62936186987446        3.96082108795516       -1.96901105328013
C           -1.48038118570468        5.00124448269086        0.17905919905568
H           -2.38614303278049        5.27937455511210        0.62873810375208
Cl           0.68306261715473        1.85871697181121        2.62899818842847
Cl          -2.14659952606098        1.28789337829181        1.61306101887237
O           -0.86495125961601        0.15954573040518       -0.63402524679639
O            0.48193620257856       -0.43398954546862        1.35803069084063
C           -1.50741744694556       -1.99867697537518       -0.04903804585162
C           -0.15456879083317       -2.37260431919235        0.13985803125543
C            2.15199248537639       -1.71307119593405        0.38098375264726
C           -3.10730813545617       -0.36536009247237       -0.77163236631025
C           -4.18639676407271       -1.21451253636054       -0.59677234558906
C           -2.57948325061700       -2.89774447400238        0.10322318610719
C           -3.86597775361177       -2.51106523307718       -0.13332517697697
C            0.30951401315712       -3.67490489534932       -0.12633436664987
C            1.64247224000461       -3.95021451477060       -0.19672003708636
C            2.62877648553389       -2.93673073703058       -0.03093803900458
H           -2.36920233658879       -3.88919406244055        0.46781103740818
H           -4.65288610255403       -3.22363652470433        0.03669283277885
H           -0.41331032033881       -4.44373811129558       -0.34364915737065
H            1.94938013699440       -4.95546274345401       -0.42041103728014
C            4.10298162076394       -3.22161192541512       -0.28673210321379
Cl           3.11822800834255       -0.35529934475769        0.78954825232218
N           -1.83990537947047       -0.73695487001283       -0.47785421764398
N            0.82120661232521       -1.47492814753419        0.54155596411833
Cl          -3.19033352268348        1.20457797992176       -1.42766561287939
C           -5.62636497335796       -0.80069036956914       -0.86603387851129
C           -5.98350808384271        0.41052592245681        0.00692382446145
C           -5.81104896900591       -0.47424098174163       -2.35502549289803
C           -6.61303800478798       -1.92194779860929       -0.51681139437554
H           -5.39374354187628        1.28180546466930       -0.24985761518868
H           -7.03376627167898        0.65856899232576       -0.12486480228561
H           -5.80927324821594        0.17972359501266        1.05501366850810
H           -6.85393633970041       -0.23586573206488       -2.54780121115405
H           -5.20592137081511        0.37242463678347       -2.65660061493193
H           -5.53596584599291       -1.33292711444920       -2.96377210655390
H           -7.62444608324576       -1.56967233870089       -0.70465864477964
H           -6.45099101809738       -2.80313060777416       -1.13314669771155
H           -6.54710701762819       -2.19396256805590        0.53360586759571
C            4.63818705054734       -2.25842676317559       -1.35584630991443
C            4.89954505631636       -3.07891731172439        1.01764375681836
C            4.32363453244737       -4.64768065273951       -0.80757903067583
H            4.06025523219715       -2.36021579484601       -2.27178267961123
H            4.59038726112152       -1.22593590112490       -1.03035913762471
H            5.67570165215499       -2.49828599257931       -1.57529145137969
H            4.86660975319107       -2.06411494231757        1.39593543445289
H            4.49673903313848       -3.74528389770083        1.77709670164646
H            5.93883359663103       -3.34509350671617        0.84175995012807
H            3.77211038170821       -4.82324711051013       -1.72796312753736
H            5.38103182461961       -4.78329227537116       -1.02186456157556
H            4.04079186049310       -5.39130879312269       -0.06674462504661
