69
 energy: -113.770210636479 gnorm: 0.000684920111 xtb: 6.5.1 (b24c23e)
Si           0.23799277168471       -0.81102624192342        0.33680385189251
O            1.55175160509178       -1.66555156226716       -0.15362711105154
C            1.78822744752637       -3.04170972492117       -0.24253243471530
C            3.14342280218012       -3.26612577317348       -0.86559643126037
H            1.00841203837889       -3.49865321855150       -0.87078506608824
C            4.19569584699796       -2.41120334365537       -0.56853617365577
C            3.36220710031760       -4.34682800112092       -1.70889727977372
C            5.44784765894761       -2.62865266246723       -1.11437358897468
H            4.01777531144909       -1.57041058740757        0.08395363462470
C            4.61679392026299       -4.56810329355426       -2.24886404332701
H            2.54515614832210       -5.01460480802857       -1.94377727106013
C            5.66163881064605       -3.70872339002708       -1.95386277187973
H            6.26018034110182       -1.95516730485107       -0.88209372947896
H            4.77839382120239       -5.41146066952811       -2.90475336303333
H            6.63998595070374       -3.88038616536359       -2.37896193215944
C            1.75474988238055       -3.71612388665729        1.14807902577034
C            0.40240508957718       -3.84021573009766        1.64296420720046
H            2.20701430856015       -4.70834458368950        1.06750111207655
H            2.34396264963470       -3.10876491121086        1.83961252346709
C           -0.73414373036179       -3.93017851248423        2.00686740539162
H           -1.72421004480268       -4.01101558654554        2.34282218659595
Cl           0.82789530863842       -0.60396357272913        2.31294541734755
Cl          -1.15779627279483       -1.92059397899252       -0.78351148119270
O            0.67242164712346        0.47506653138048       -0.69387424573113
O           -1.18113630857670        0.26047165257559        0.98605651671009
C           -0.67467773949728        2.41821593242997       -0.63166665060637
C           -1.90839041632842        1.72009133619650       -0.67175301241738
C           -3.34065784110446        0.00804818412670        0.19902176285581
C            1.66569755728253        2.47418471564661       -0.05543142992458
C            1.72711285000919        3.84875148685549       -0.09585776693187
C           -0.59889710111190        3.80991326723137       -0.81678059862442
C            0.55132126630400        4.49786292782889       -0.56725374436138
C           -2.97771186853348        2.11688166899935       -1.49458127269567
C           -4.16056310142470        1.43717423501141       -1.49517976406889
C           -4.39406780939555        0.33979479557822       -0.63470893714501
H           -1.49566743707569        4.33853536981214       -1.09500720692596
H            0.55225842734127        5.56405326803214       -0.70049332335139
H           -2.82309487966343        2.93860575513514       -2.17380103646165
H           -4.93206814753391        1.75437170335825       -2.17335261672625
C           -5.71646333387529       -0.41456139897987       -0.65146680756842
Cl          -3.39930610680862       -1.17882033378576        1.41744863618326
N            0.53368024207099        1.79015084659763       -0.37876284077349
N           -2.15188187972020        0.65245018625760        0.15726072703043
Cl           2.96251411919322        1.43691779480322        0.34232294514271
C            2.95565859011566        4.64769489235873        0.31944401569590
C            3.30908455665214        4.32933719508786        1.77907767286611
C            4.13468969860677        4.32048675219211       -0.60784390310739
C            2.70742693985038        6.15883771408714        0.23051376769547
H            3.58044378815030        3.28877244593437        1.90984266492183
H            4.15028520751735        4.94251514244954        2.09247760163839
H            2.46256265649648        4.54978303004055        2.42531175442885
H            4.98833626583707        4.93942091984785       -0.34344094439710
H            4.42895364125413        3.28084336792450       -0.52750594216710
H            3.86653257222293        4.52678778512997       -1.64161159699499
H            3.59653203908785        6.68105115659908        0.57576631144918
H            2.51840847824243        6.47297223071797       -0.79305439999688
H            1.87712085850951        6.46199757384917        0.86348399332881
C           -5.45790218820029       -1.89355791368366       -0.97258792606839
C           -6.42888605282161       -0.26545226934356        0.70057051740412
C           -6.66385860523796        0.12728936424559       -1.72937056687993
H           -4.90602017680057       -1.98238792274272       -1.90529732640352
H           -4.88608991698019       -2.38281189337678       -0.19346594597216
H           -6.40555427456257       -2.41581631071692       -1.07860878424732
H           -5.85170150289345       -0.69886904220534        1.50885730475120
H           -6.59883187310296        0.78639311907016        0.92060747170540
H           -7.39182163513294       -0.76847301573816        0.66067047037179
H           -6.22789278988879        0.03699902453437       -2.72115481281613
H           -7.58082776487316       -0.45700974091170       -1.71587808219552
H           -6.93150441635785        1.16439797880331       -1.54137033533311
