75
 energy: -120.109750022902 gnorm: 0.000488097181 xtb: 6.5.1 (b24c23e)
Si          -0.13358621600346       -1.71928516962194       -0.52634660365035
O            1.43933280935208       -1.51675407738340       -0.17926450487914
C            2.42179939336357       -1.79052122085051        0.79355239843166
C            2.18969477745539       -0.95203029574526        2.02893863410579
H            3.35781083041647       -1.46435769313456        0.31368146338173
C            1.02686357368573       -1.08691462804634        2.77726230967136
C            3.13516873747021       -0.01187147252658        2.41796297342573
C            0.81463926395854       -0.28820542529079        3.88693877464624
H            0.28183924495579       -1.81065054760601        2.48899148551265
C            2.92812240771359        0.77843559738133        3.53434972133674
H            4.04623745265823        0.09668892866366        1.84742510946883
C            1.76339706596037        0.64432927101587        4.27079787887190
H           -0.09449370078232       -0.40101129581203        4.45859942537733
H            3.67716815961670        1.49972896516459        3.82939150239435
H            1.59873510622690        1.26050075743720        5.14330445424724
C            2.56138461013106       -3.28347574024966        1.13293626534461
C            2.79801707596274       -4.04732826702627       -0.07303373330459
H            3.40096842095848       -3.39867103528042        1.82415488569821
H            1.65020878692916       -3.64593549386341        1.61014719904404
C            2.97760703156224       -4.62205801629262       -1.10678889132677
H            3.12268525316450       -5.16263057070905       -1.99360498254141
Cl          -0.72805908351768       -2.60381087224268       -2.27272646977282
Cl          -0.62909316439307       -3.41182952291882        0.69147471899075
O           -1.17654732059345       -0.83163867403997        0.51419863760709
O           -0.01110857236618       -0.17022275114628       -1.58398040388405
C           -1.34368314930268        1.48741244263268        0.06934614501983
C            0.07984112903538        1.58319067284218       -0.05415216152250
C            1.99599962936218        0.95576354228445       -1.35301673558564
C           -3.27564681467399        0.02765453255045        0.01429802022566
C           -4.15797080876926        1.08039594908464       -0.07009749694473
C           -2.21558524250093        2.58667689606085       -0.00148821608770
C           -3.57429774057529        2.37180686450162       -0.04088811271956
C            0.90984677816090        2.41754063395210        0.71564517083224
C            2.23875439823927        2.53286956058192        0.38607979517684
C            2.82144529584063        1.86144931077597       -0.71103556415933
H           -4.20967562913082        3.23515509372652       -0.12193779602180
H            2.85318425557810        3.15408184446281        1.01325349150282
C            4.25489873323051        2.14331250517935       -1.14397892668588
Cl           2.45870660595707       -0.07427468797666       -2.63409522341093
N           -1.93741945590157        0.23857373985668        0.15678270335694
N            0.69658420560357        0.81296003039331       -1.01681520801418
Cl          -3.68923245461717       -1.63373162223408       -0.02474589733578
C           -5.66431699672663        0.90105176967896       -0.21346909909767
C           -5.97640338074206        0.14713136377038       -1.51352674741151
C           -6.21479631243897        0.13996616222393        1.00093022273391
C           -6.39825116903370        2.24655599676614       -0.27718082262307
H           -5.56155068908657       -0.85362659670422       -1.50641822752572
H           -7.05330527072046        0.06883593229863       -1.64073572951740
H           -5.56667423747227        0.68505936621791       -2.36554880692217
H           -7.29605440793688        0.05968281630541        0.92174243611893
H           -5.80390473629865       -0.86019093709111        1.06700717520025
H           -5.97536764548829        0.67492520583754        1.91736603831378
H           -7.46587172896107        2.05905182359142       -0.36371386660295
H           -6.23690790643850        2.83083750584003        0.62551269639767
H           -6.09358617755432        2.82556574446795       -1.14547741640870
C            5.12446438022991        0.88237738999874       -1.05316565902515
C            4.24170733735338        2.67469794742650       -2.58533695428921
C            4.91199253076908        3.21479373963840       -0.26473376571385
H            5.16166166033911        0.52308868738238       -0.02747787356066
H            4.74997592686878        0.08709941549315       -1.68656308334423
H            6.13876921829531        1.11792966407701       -1.36674739209341
H            3.85723279368584        1.93393082111681       -3.27696270890355
H            3.62247838371614        3.56684826263439       -2.65045762758829
H            5.25268599871002        2.93499092605524       -2.88890089623875
H            4.99407205311198        2.88638166878805        0.76855747920770
H            5.91795679431535        3.40311785880745       -0.63246429259646
H            4.36214813241617        4.15198782380136       -0.30397224069366
C            0.39969124615319        3.08255803760707        1.95767514825609
H           -0.61439561627542        2.76927034572977        2.18330711347444
H            1.04024097871745        2.80214263651614        2.79237584036801
H            0.42976029701961        4.16639517721456        1.86373627114511
C           -1.70734512062952        3.98819780214459       -0.16006365913281
H           -2.33199561764688        4.52256921508711       -0.87233276854092
H           -1.75475417782302        4.52348876413215        0.78662503255099
H           -0.68195621985237        3.99980060459249       -0.51602505175846
