75
 energy: -120.111451964537 gnorm: 0.000669075893 xtb: 6.5.1 (b24c23e)
Si           0.03407739535924        0.98500337424237        1.31638917427158
O            0.46009278623721        2.31501059559276        0.49682910101733
C            0.13488938176021        2.77542311455495       -0.79315896911437
C           -1.32764785162082        3.11378829713333       -0.92101114189566
H            0.39616919964068        2.00063881911690       -1.52458013675289
C           -2.04841228231491        3.56137097326754        0.17674856236918
C           -1.95975298773213        3.00663191159763       -2.15322308581103
C           -3.39053820177087        3.87396777609744        0.05011273530256
H           -1.55744243526929        3.64783077979325        1.13419947294860
C           -3.29837837835417        3.33048639585556       -2.28172485411570
H           -1.40144864770349        2.65610741100531       -3.01029780446062
C           -4.01778269861270        3.75971253487598       -1.17859592738823
H           -3.94650582852121        4.20600651399421        0.91422574299871
H           -3.78401214857660        3.23773652557904       -3.24243502045286
H           -5.06587499777793        4.00168295940274       -1.27726048324769
C            0.97634230173239        4.04097325297070       -1.05058432207815
C            2.37243337500631        3.72569637293788       -1.25582687749411
H            0.58620960106833        4.55466640744465       -1.93366957479516
H            0.87415881772148        4.69653556501338       -0.18239923979004
C            3.52012193128601        3.44477307408148       -1.44335103686186
H            4.53356259793101        3.22381583077821       -1.59719750610517
Cl          -1.79253452437421        0.49032386848017        2.17658694131711
Cl           0.80781659817400        1.80931042514470        3.10020873467363
O           -0.53691772649550        0.19844598523916       -0.33294738982238
O            1.11291117564330       -0.33225024395447        1.48399436467043
C           -0.29196810513868       -2.10613397761898       -0.10228127818454
C            1.12327540338885       -1.93377406135186       -0.25432348023664
C            3.07385606588201       -0.58770896237428        0.25635121116855
C           -2.45826449768304       -1.09720630191713       -0.31679809146363
C           -3.11867972487985       -2.29215739404018       -0.09749628090077
C           -0.91995289691664       -3.32850025004189        0.19466510570901
C           -2.29280110303745       -3.39270594617966        0.21333311503709
C            1.91667693785652       -2.68932659601689       -1.13190112699743
C            3.25547265216163       -2.39694312204548       -1.25835310317122
C            3.88591432581645       -1.32678988001921       -0.57447418739458
H           -2.74194139371704       -4.32935340231499        0.49205174842385
H            3.82563712059902       -2.98139909475308       -1.95761329766775
C            5.37016062694306       -1.04029493562830       -0.76791056146164
Cl           3.54067195919605        0.79562509617991        1.15144119929084
N           -1.10972426094381       -1.00806703327595       -0.26396650472859
N            1.76806874279173       -0.92876367702566        0.44883274017451
Cl          -3.20719393931132        0.38539337837498       -0.72090255055180
C           -4.63501510065720       -2.42677132739870       -0.13335153894445
C           -5.26106982890684       -1.50543711611949        0.92286464079525
C           -5.15726355781576       -2.08402115682218       -1.53594851792294
C           -5.08680996650893       -3.85813594995931        0.18316472840130
H           -5.08813252522202       -0.45955688567781        0.70026535085969
H           -6.33460906855202       -1.67288661725759        0.96400634892509
H           -4.83769215666231       -1.71768235185626        1.90149993051384
H           -6.23567685778259       -2.21799747397286       -1.56547346418800
H           -4.93372221198258       -1.05893741773182       -1.80707055021518
H           -4.70795153662213       -2.74481754854444       -2.27442089424996
H           -6.17168377660871       -3.90424853655748        0.12499464767653
H           -4.68576991131571       -4.57072157701243       -0.53384945618567
H           -4.79795000382415       -4.15106152176749        1.18928652515832
C            5.56963962351695        0.36929928822733       -1.33895683656450
C            6.09233728728876       -1.18116664635477        0.57975294762109
C            6.02391856326323       -2.02771036606800       -1.74277988281810
H            5.00554235981815        0.48260977437980       -2.26242635011657
H            5.24273262422225        1.12311536369524       -0.63352614675120
H            6.62362865332660        0.53047895558876       -1.55366588774112
H            5.72086227932806       -0.46817392076867        1.30627956715167
H            5.95262326138556       -2.18446047990072        0.97602142580756
H            7.15733164378393       -1.00963774907140        0.44429382926330
H            5.59127043823394       -1.95049598444217       -2.73730988885359
H            7.08233233705654       -1.79120356426939       -1.82334358503294
H            5.94068797647282       -3.05189640616361       -1.38778218991078
C            1.32461277201242       -3.73738189229281       -2.02607565883475
H            1.57720244668631       -4.73394565460530       -1.66899873990353
H            0.24443607169531       -3.64873121979028       -2.08255709471713
H            1.73744898037455       -3.63319831516462       -3.02719971317276
C           -0.12660300412455       -4.52723206931591        0.62005337710017
H           -0.53238878513108       -4.90813483863058        1.55542513477989
H           -0.19809879776413       -5.32460779171740       -0.11732292632532
H            0.91806440557328       -4.27624536286251        0.77298775197103
