75
 energy: -120.107785943684 gnorm: 0.000468360142 xtb: 6.5.1 (b24c23e)
Si          -0.38928499847852       -0.84736699782766       -0.08227050616626
O           -1.41860624514434       -2.08586454212218        0.02419548940878
C           -2.51358946432795       -2.52436781549006       -0.73771833233862
C           -3.68168282742062       -2.81901606697392        0.16705905145839
H           -2.79373131472193       -1.75215911912255       -1.46330174354266
C           -3.47506603627679       -3.20843780862516        1.48306558671750
C           -4.97843649308376       -2.72506307670594       -0.32154031147330
C           -4.55294230679980       -3.49498535996347        2.30200333678425
H           -2.46566753156481       -3.27023682173144        1.85961953859850
C           -6.05438365151244       -3.02009475389486        0.49615769788352
H           -5.14215213258915       -2.41425065990176       -1.34385665724583
C           -5.84369884583445       -3.40478625067480        1.80991055033826
H           -4.38384266169150       -3.79119400199649        3.32700798081288
H           -7.06014191822293       -2.94384545050249        0.10906021293618
H           -6.68502702647554       -3.62984078391146        2.44908185664702
C           -2.08698997169680       -3.79748493334795       -1.49757616061285
C           -0.98722945011328       -3.49788255142730       -2.38858856519265
H           -2.93945378273909       -4.18035500240969       -2.06380908413748
H           -1.77236201514399       -4.54904346411135       -0.76838687974046
C           -0.06452808158619       -3.18882283592567       -3.08503065470197
H            0.73771069897155       -2.93947960582450       -3.71299444679721
Cl          -1.45255632674032        0.18757780963238       -1.69798184150394
Cl           0.78308272892097       -1.89824273424438        1.39641139600574
O           -0.49452055369350        0.45725156796389        1.02894782725905
O            1.00548829257795       -0.34029351335960       -0.97529151576282
C            0.95108196381566        2.11629561002756        0.21905119012178
C            2.07051858904267        1.22136958026213        0.39920637901714
C            3.13373863238185       -0.86516426074884       -0.18926188874567
C           -1.43125357761648        2.48977422663803        0.39317375347344
C           -1.34184069848586        3.77137537546386       -0.10490909041693
C            1.08334941893344        3.41879014553468       -0.27994534862794
C           -0.03810329239593        4.20357828891919       -0.44064982054639
C            3.17762685058375        1.51997056425245        1.20284772481069
C            4.21896007341660        0.62110915945054        1.28742070872478
C            4.24818446275102       -0.59960801672528        0.57676396057196
H            0.09716201594550        5.17633623719242       -0.87814157537720
H            5.02542970483147        0.86000677566348        1.95722783879324
C            5.42268599138841       -1.56058566835739        0.69866753755302
Cl           2.89020485718843       -2.24888165936569       -1.14839391649684
N           -0.32792789327632        1.71704610235256        0.55847146108537
N            2.10711802020105        0.01610907955283       -0.27445152835144
Cl          -2.86083265113395        1.71449394673343        0.90607388653778
C           -2.55363362718083        4.66708878923104       -0.32424088900852
C           -3.51779338448832        3.99084854154218       -1.30884695610884
C           -3.24827497233336        4.94543652757959        1.01627825827788
C           -2.16008691733995        6.02227931014719       -0.92509064860147
H           -3.94080460099070        3.08195615864616       -0.89855203494112
H           -4.33328034138174        4.66930730661565       -1.54739405684628
H           -2.99555778173143        3.73704369569278       -2.22809217936641
H           -4.09039112929114        5.61438124656305        0.85738122149854
H           -3.61814949698215        4.03486308420245        1.47260764986429
H           -2.55483020952952        5.42268239849587        1.70558022887968
H           -3.05769873856889        6.62261579794540       -1.05302779185641
H           -1.48707354492794        6.56922046063797       -0.26897572384398
H           -1.70010978121612        5.90304498593582       -1.90273892276283
C            4.93264945341373       -2.90060284349586        1.26519510769443
C            6.08014927968359       -1.75559221127659       -0.67504047589009
C            6.49953619040489       -1.02517025508617        1.65033581433358
H            4.36519286567795       -2.73538247441116        2.17755488156792
H            4.29669270675423       -3.42630361604873        0.56356831373344
H            5.78547538060115       -3.53556455910577        1.49273990137134
H            5.38886800200557       -2.18325295446872       -1.39181239852372
H            6.43422725332601       -0.80150812745515       -1.06012580667563
H            6.93126504009379       -2.42508724089151       -0.57919161183396
H            6.11269369352021       -0.91262692834158        2.65982745782852
H            7.32025424336633       -1.73757701132894        1.68757235419345
H            6.90147101400495       -0.07557666827934        1.30481042705749
C            3.20712145302553        2.74224372434513        2.07049820454491
H            3.96737901656316        3.43968437651750        1.72333734659168
H            2.24563118651176        3.24505418108622        2.08460291022876
H            3.46395036877785        2.45370570676283        3.08766337842420
C            2.40420424142096        3.94522155134739       -0.75518806569436
H            2.27778010955687        4.41540712744171       -1.72795028057313
H            2.78094387263177        4.70201299496196       -0.06934113988303
H            3.14116060243599        3.15342421015537       -0.84290957142619
