75
 energy: -120.110759919486 gnorm: 0.000258399603 xtb: 6.5.1 (b24c23e)
Si          -0.15120719397459        0.99050952748212        0.63026826683032
O            0.34309541411312        1.97145348458554       -0.55986127398643
C            0.36733579035045        3.38346211930199       -0.54828502296723
C           -1.02346996467401        3.92318135523749       -0.33923274733348
H            1.01597725645428        3.71955647812112        0.27071161277531
C           -2.08031332139885        3.38091535711708       -1.05863007163125
C           -1.27195516648145        4.92100158364063        0.59106512173474
C           -3.37194451061357        3.82445596218629       -0.84485579592209
H           -1.88367468018244        2.59061722332437       -1.76791388025605
C           -2.56446134702443        5.37000464931782        0.79891596641053
H           -0.45430652665873        5.33015146039880        1.16579846440047
C           -3.61564839792825        4.82156640835075        0.08442465189100
H           -4.18985012172798        3.38708624575183       -1.39904166713828
H           -2.75225086703216        6.14085335772063        1.53174328757991
H           -4.62526197478550        5.16431199867271        0.25782636385451
C            0.94058451747423        3.85362029656982       -1.89459636348665
C            2.33652659684484        3.50055242878806       -2.03253034921946
H            0.82975201252196        4.93936221360821       -1.96164205819374
H            0.36752494318815        3.38658352707194       -2.69901905621739
C            3.49159122580569        3.20390952596292       -2.13014917870749
H            4.50536790505809        2.95500321530864       -2.23154070857590
Cl          -2.08266730813292        0.74920893383729        1.37611779733143
Cl           0.39038532772111        2.25721731343779        2.30127339564252
O           -0.49441040051947       -0.18389487629918       -0.75539751980685
O            0.93893617632058       -0.15553376298832        1.28294803650629
C           -0.27909830790017       -2.33843247910456        0.12031018913458
C            1.14232657797047       -2.16975971185294        0.07149242611357
C            2.99213039478741       -0.62397657945363        0.29503067879393
C           -2.39948242777002       -1.49320659896672       -0.61973364549803
C           -3.08796481945101       -2.60095192225188       -0.16492071771480
C           -0.94696701267450       -3.44525565046333        0.67423148477799
C           -2.31158145204558       -3.54346216097607        0.54427334436983
C            2.03290162781962       -3.10672801950564       -0.47740502991341
C            3.36488703004948       -2.78208160875481       -0.59825140258924
C            3.89314588215630       -1.51622452722155       -0.24274797477786
H           -2.79740042118311       -4.37714690080041        1.01938979078666
H            4.01342350870880       -3.51319321090349       -1.04624602362548
C            5.36404408936947       -1.18752274347626       -0.46678726547653
Cl           3.33465894581984        0.97896153004043        0.78212144505673
N           -1.06792966124404       -1.35091767863324       -0.43149651521440
N            1.69583571248273       -0.97855812430263        0.50688120561483
Cl          -3.07970975460899       -0.20768296849671       -1.50334996916206
C           -4.58628127275291       -2.79089310184452       -0.35772659694672
C           -5.34430088817598       -1.63559849155090        0.31125165186441
C           -4.91468557977544       -2.86420195167494       -1.85601508511159
C           -5.08032435428024       -4.09482495530504        0.28119136181840
H           -5.14975502060350       -0.68804695708297       -0.17639954218240
H           -6.41378238462811       -1.82718627190618        0.26942724078821
H           -5.04681054315864       -1.54699976775561        1.35328027638234
H           -5.98077579764950       -3.03227160020981       -1.98670237662018
H           -4.64906813368792       -1.94807517275298       -2.37035488306160
H           -4.37709921488167       -3.69019920033421       -2.31724105538966
H           -6.14675674426826       -4.19522424298503        0.09387028904323
H           -4.58500957825778       -4.96213393679737       -0.14913433653556
H           -4.93378401180690       -4.08820395260932        1.35825690851526
C            5.49357243719056        0.00095149338899       -1.42850229024651
C            6.02873166141498       -0.86750264420764        0.87974863408113
C            6.12833555854176       -2.36447419672575       -1.08581918877718
H            4.98398902719620       -0.21657990804363       -2.36475453061289
H            5.06381073894909        0.89807323357712       -1.00055117742801
H            6.54407139497166        0.18681256117166       -1.64004059180555
H            5.58309491215007        0.00244807693097        1.34738329485130
H            5.92961929452444       -1.71355842616496        1.55618975277355
H            7.08709257063413       -0.67055825204360        0.72782754427956
H            5.73551642757841       -2.62190221521911       -2.06638372465434
H            7.16994593888677       -2.07830651000406       -1.21148653057990
H            6.10184361988389       -3.23963396509429       -0.44129901196620
C            1.55695130885823       -4.40787213893487       -1.05013875943118
H            1.78449305025040       -5.23068734080927       -0.37496659094074
H            0.48774715051039       -4.39220099779688       -1.23491834159596
H            2.07182929496635       -4.60066988091955       -1.98861468577389
C           -0.21739568586554       -4.44941671030442        1.51525502351831
H           -0.72648216158380       -4.54726657593652        2.47239178880501
H           -0.21684485137460       -5.42957091297925        1.04218858652757
H            0.80650053920929       -4.14051375846183        1.69870865424295
