75
 energy: -120.108029383152 gnorm: 0.000882539432 xtb: 6.5.1 (b24c23e)
Si           0.54952408495868       -0.65687786450144        0.43774164348216
O            1.62972065882848       -1.76915665754133        0.87737697698082
C            1.95789341058019       -3.06446212262316        0.44274753461013
C            3.27523914289705       -3.04337551760338       -0.29088394825690
H            1.17142749876561       -3.44587605188100       -0.21859924520844
C            4.20735625066803       -2.04624221259303       -0.03989629729249
C            3.57320025432809       -4.03971184127092       -1.21164056567795
C            5.41980267253921       -2.04160835956925       -0.70686078948039
H            3.96992431462712       -1.27143312073410        0.67315949187797
C            4.78943574438565       -4.03865965844125       -1.87050468564375
H            2.84602513479403       -4.81318689417352       -1.41516338800788
C            5.71458462415763       -3.03874461765935       -1.62057756468596
H            6.13684237359524       -1.25773358752130       -0.51023654277606
H            5.01389268790352       -4.81718230698784       -2.58522348922202
H            6.66208362975275       -3.03621300996124       -2.13967862986075
C            2.04885746919556       -3.96930178708594        1.68698258735676
C            0.74831554435920       -4.12080332003621        2.30274345660925
H            2.43651545460002       -4.94687881616154        1.38891345589308
H            2.74050484554050       -3.51105492980443        2.39870628168962
C           -0.34574167455954       -4.20741366687661        2.77934014766905
H           -1.29462874864371       -4.30537702692150        3.21590495081081
Cl           1.49793936761779        0.62150297792996        1.89539540211510
Cl          -0.46912073883892       -1.93171607826084       -1.04516671886578
O            0.63157136800930        0.49201815240977       -0.84253059453195
O           -0.92946458595766       -0.16972185682030        1.16991775824374
C           -0.88819737093473        2.17275317204686       -0.25048347782663
C           -1.97273531549348        1.22893941213936       -0.39143250937632
C           -2.98696632921450       -0.84720669511938        0.31494304342225
C            1.48141916199012        2.61509456492630       -0.40998024192845
C            1.33754738774409        3.93024654688557       -0.02548909692016
C           -1.07626636565645        3.50554545357929        0.13600349121792
C            0.01422592799111        4.34030481726603        0.25287085773071
C           -3.05841979175629        1.42503691067753       -1.25434940604890
C           -4.06198719477743        0.48217210594751       -1.31208782410105
C           -4.07512022392791       -0.68522436617283       -0.51513255420944
H           -0.16347653434116        5.33914873060297        0.60880865367510
H           -4.84938196855542        0.64042471905222       -2.02696006694766
C           -5.20862991821578       -1.69749524325842       -0.61033751120575
Cl          -2.73447430115195       -2.14377545259947        1.38807346864027
N            0.41005645000723        1.79127525322326       -0.52890855318619
N           -1.99593694311958        0.07709434854982        0.37191128115260
Cl           2.94341877019523        1.85605883169019       -0.83559072101955
C            2.51344864714719        4.88348335707419        0.13749512727521
C            3.49483889737638        4.31394883764256        1.17173245726743
C            3.20666519036790        5.09245811964753       -1.21633758458943
C            2.06391600769647        6.26062607186558        0.64099685686002
H            3.99980383115562        3.42975858032246        0.80283234462932
H            4.24797264661764        5.06062216680814        1.41147136235139
H            2.96499973782965        4.04559954593682        2.08218527160349
H            4.03532289154657        5.78602275735361       -1.09724964635366
H            3.59482177522656        4.16210137681955       -1.61445131705449
H            2.50660960041499        5.51284482337458       -1.93550887427037
H            2.93673952025626        6.90275346866944        0.73202661489032
H            1.37597675720130        6.73587796625832       -0.05435219923158
H            1.60107246948589        6.18915155862686        1.62186145800351
C           -4.65024333325245       -3.05602280326853       -1.05651184849030
C           -5.91442514871057       -1.81644675066700        0.74802111140293
C           -6.26469602333170       -1.27521895975936       -1.63915563840092
H           -4.08165590460820       -2.94238465793194       -1.97633804521498
H           -3.99871648202732       -3.48999322852186       -0.30767975530268
H           -5.46992522111110       -3.74740199059491       -1.23684003503883
H           -5.24044075222312       -2.16944028179154        1.51975511709715
H           -6.31173016520991       -0.84943207035598        1.04965210174238
H           -6.74080450665356       -2.51829699176909        0.66838583509383
H           -5.84225100967390       -1.21984691734806       -2.63918801448320
H           -7.05619718696908       -2.02080416842261       -1.65524210037506
H           -6.71529620257271       -0.32017850597071       -1.37960461389218
C           -2.42406777409535        4.02086389573276        0.54291765372401
H           -2.80457019764306        4.72002330365448       -0.19975557356778
H           -3.13982935880048        3.21454267974716        0.66591722090977
H           -2.33588100464409        4.55646278761768        1.48562874975927
C           -3.10090039230622        2.58206760665867       -2.20677012936606
H           -3.32509999634464        2.21724340135895       -3.20698633966256
H           -3.88859398325851        3.27872717614848       -1.92550492001125
H           -2.15427055376660        3.11200591032866       -2.23371770820496
