75
 energy: -112.021238809698 gnorm: 0.000639540730 xtb: 6.5.1 (b24c23e)
Si          -0.09522876636827       -1.66452166028825       -0.68178458205690
O            1.48147903949177       -1.58123834229414       -0.27763975160391
C            2.29712766731144       -1.72343592152118        0.86934296969308
C            1.78081104703196       -0.85451528945221        1.99087552066661
H            3.27266851484435       -1.33046388507549        0.54198311835691
C            0.61573162710735       -1.17525805652631        2.67727631647696
C            2.44559965823840        0.32347652011630        2.30629601800354
C            0.11604727560918       -0.31636830459727        3.64004854563895
H            0.08563101154597       -2.08465541386921        2.44554348772382
C            1.95228112379912        1.17502829483317        3.27876931138272
H            3.35663785659238        0.57797080575989        1.78327785646924
C            0.77907855970240        0.86111950357751        3.94173731743263
H           -0.79678593270570       -0.57054571921252        4.15819732124758
H            2.48269565168293        2.08643593437231        3.51426680138477
H            0.38562745920511        1.52926183532583        4.69407327435089
C            2.49203711337103       -3.18870693764233        1.28890391637087
C            3.19735203488714       -3.91471686443061        0.25503122943049
H            3.06815758357736       -3.20797291308958        2.21825301606372
H            1.52272238849626       -3.66041661934827        1.45431284415711
C            3.78328549860099       -4.46374914723608       -0.63198717894964
H            4.28098150961984       -4.98138259418486       -1.39568736529130
Cl          -0.59527121142157       -2.44825865208830       -2.51452051143385
Cl          -0.64822796025319       -3.47166136998911        0.37219596000616
O           -1.20696273283977       -0.91913042991010        0.36775851715200
O            0.04063426559177       -0.08535530028156       -1.59785078364005
C           -1.30125487494733        1.44308772448116        0.24954744899068
C            0.06882171014103        1.64588384187085       -0.04406240694181
C            2.00510011182374        1.11754028398623       -1.39411671331015
C           -3.28418705592915        0.05270659830271        0.04180067103030
C           -4.12151085089150        1.13842894446964        0.21117430734391
C           -2.14912930463982        2.50856333303612        0.61102036879948
C           -3.50207240731796        2.35916182023963        0.60149615098849
C            0.81899123483505        2.68121041226475        0.54354889305296
C            2.12062083141004        2.88677732077495        0.19960851984816
C            2.76856062478002        2.10573372347696       -0.78675296490504
H           -1.71316490248524        3.47047532909458        0.82357803282137
H           -4.10758632438355        3.20623808904376        0.86708676001984
H            0.36151826466081        3.27635118985968        1.31556912820263
H            2.65558706784952        3.67065025380614        0.70409411072572
C            4.23020804999257        2.38754569202081       -1.13147537101265
C            2.40609239901408        0.22515720091869       -2.52162542551279
N           -1.93456510771742        0.21944714631764        0.14253785454493
N            0.72753948350925        0.90626488058453       -0.99592533523143
C           -3.66480716148631       -1.37013822628282       -0.20532916255458
C           -5.63466689726430        1.09353637561754        0.00912962786841
C           -5.96317556066360        0.60669765662154       -1.41131106170480
C           -6.30142646100862        0.22031653653774        1.08370549378677
C           -6.27154049786979        2.48717635319737        0.13138231459634
H           -5.57062336780766       -0.37830657401781       -1.62933604213543
H           -7.04199820998612        0.57843447187438       -1.54849447386098
H           -5.54505779640091        1.29981794862098       -2.13839128086229
H           -7.38089442342947        0.23537113973113        0.94989854448086
H           -5.97323725299664       -0.81191357476507        1.05746035345190
H           -6.07338334195646        0.61767092789584        2.07067026310389
H           -5.82674266966550        3.18980256321230       -0.56915870158089
H           -7.33103386532142        2.40964724710720       -0.10308671196913
H           -6.18911087754308        2.88083925665900        1.14150573578427
C            5.08454626645063        1.11756597433410       -0.99116748789004
C            4.33296485893797        2.98964641612859       -2.54256638517133
C            4.85694242681070        3.41885905529743       -0.17898361233850
H            5.08613246154819        0.78979755047315        0.04653952819657
H            4.73518498575429        0.29328002495392       -1.59888084761369
H            6.11174553570629        1.33597526857450       -1.27546706556655
H            4.79085037572839        3.09618074674538        0.85740488229799
H            5.91105253322998        3.52721161336277       -0.42532236105736
H            4.39492104096159        4.39746920634096       -0.28370479192995
H            3.97019206225705        2.32321161826557       -3.31657547812236
H            3.74955736376375        3.90685718381049       -2.59240478029505
H            5.37016932721095        3.23122442722690       -2.76423645837479
H           -3.25718400678559       -1.99691916654232        0.58844201114952
H           -4.73160295107232       -1.52579621536828       -0.25885087147334
H           -3.20731507177208       -1.71045031735017       -1.13568756486430
H            3.31882499700325        0.53447578222320       -3.00910814438805
H            2.51312325668183       -0.79573990863551       -2.15466671984177
H            1.59817668861617        0.20471138063375       -3.25325194959963
