75
 energy: -112.022199653837 gnorm: 0.000594083609 xtb: 6.5.1 (b24c23e)
Si           0.31514082630414       -1.03915425068523        0.91901964161359
O           -0.52349813836972       -1.93238781320960       -0.13742738767625
C           -1.40979837228692       -3.00965974374669        0.02270842879683
C           -2.77107404099737       -2.62072324551977       -0.49756630250954
H           -1.47998289640626       -3.27202549643605        1.08528447150840
C           -2.88231300529875       -1.73141360981860       -1.55966149698863
C           -3.92305922231643       -3.14025067274580        0.07828413787391
C           -4.12831205495578       -1.36084442590449       -2.03390975356092
H           -1.98259811932214       -1.32095795834022       -1.99327410051149
C           -5.16824004631893       -2.77407388121975       -0.40172602677719
H           -3.83960103661657       -3.82416817194553        0.91019914915269
C           -5.27368132732998       -1.88248228948446       -1.45655436406009
H           -4.20602222957693       -0.66410620452138       -2.85597017570475
H           -6.05960212309710       -3.18059920658159        0.05302162132646
H           -6.24646774652733       -1.59273450098780       -1.82604436758002
C           -0.85351191834042       -4.21616096059523       -0.75911683755926
C            0.43072231938267       -4.60381166330116       -0.21613630908211
H           -1.56015766725065       -5.04660612645206       -0.68802675593786
H           -0.73795643198755       -3.93235154395337       -1.80848515393713
C            1.49305883072826       -4.86334958356568        0.26875659889213
H            2.42385801442154       -5.10373828258361        0.68764822991266
Cl          -0.55456055986476       -1.84026478635625        2.74824161041044
Cl           2.23311239833734       -1.47647730445530        1.57666605852425
O            0.91754726856954       -0.22182776957810       -0.58027984679231
O           -0.25664653951531        0.45564242448108        1.49277953338667
C            1.65864420526964        1.91733101058885       -0.06088154327365
C            0.32944751727990        2.33834728514104        0.19318209478453
C           -1.98402105101120        1.76620568516222        0.66480391401389
C            3.17928836695442        0.21591447390763       -0.85550277104697
C            4.27831618372675        1.04677741661703       -0.69081490293450
C            2.75258826420829        2.79906598441492        0.01150927958220
C            4.01704691786679        2.36707659807033       -0.25471346262335
C           -0.10717426867732        3.64248248753307       -0.11088322367446
C           -1.43355934095415        3.94866316247744       -0.12298282890019
C           -2.43187717231427        2.97760335516899        0.17240202340577
H            2.58117437790669        3.80721246780577        0.35023405598620
H            4.82522051923829        3.06545290425465       -0.13352011224190
H            0.62222248327877        4.37589659162687       -0.41250066878747
H           -1.72156161178456        4.94967869609010       -0.38737114297690
C           -3.90293559683247        3.31503473225220       -0.05985599825431
C           -2.80291995510016        0.65715239455098        1.23709203421576
N            1.94744893047849        0.64306312202667       -0.48568554754816
N           -0.64784428501620        1.50834530168108        0.70771145581565
C            3.18992904004582       -1.13713365982335       -1.48457765662867
C            5.71859707662527        0.60958811961865       -0.94960077677553
C            5.97921634197106       -0.79866073594481       -0.38719749818094
C            6.01986968390296        0.66538478945654       -2.45547854875236
C            6.71291849794883        1.55234527546604       -0.25256951465178
H            5.69185512652917       -1.57952860854439       -1.08069670195038
H            7.04028280902685       -0.92266221345895       -0.18385134757057
H            5.43557709307935       -0.94137939437340        0.54297407196044
H            7.04620265974607        0.35466339483486       -2.63677551618590
H            5.36255607423741        0.01891194501261       -3.02901197374415
H            5.89630694401639        1.68134162986469       -2.82506421137741
H            6.49105315592332        1.63099224767617        0.80873257185336
H            7.71888478230427        1.15318831914610       -0.36055559605608
H            6.71523961978728        2.54468860641328       -0.69642544085414
C           -4.55220704237955        2.25293904716260       -0.96190250256893
C           -4.64782192363545        3.46469978694258        1.27605750968365
C           -4.07020751660365        4.65249958226379       -0.79941622110457
H           -4.06238744564552        2.25617593285550       -1.93369777583063
H           -4.48755833144507        1.24868240860007       -0.56200504581768
H           -5.60352818761123        2.49131268970023       -1.10936991561235
H           -3.51397934490252        4.66154214500673       -1.73366791106278
H           -5.12261044757456        4.79288431070187       -1.03647378307810
H           -3.75962853913119        5.49412243402736       -0.18531808532931
H           -4.68049784631461        2.54581041036890        1.84972080874900
H           -4.15894589886003        4.22186555714385        1.88548198847115
H           -5.67157170948187        3.78261580723614        1.09083812099141
H            2.21468244615668       -1.32699063172790       -1.92739533839020
H            3.95085886767769       -1.20767231366779       -2.25171301709107
H            3.35414610682259       -1.90668501622452       -0.73409280734642
H           -2.67843135191124       -0.24094953135002        0.63086555807719
H           -2.43127008964881        0.41437052582716        2.23294088764363
H           -3.85449131656813        0.89203353793575        1.30579541028981
