75
 energy: -112.017397814663 gnorm: 0.000522368608 xtb: 6.5.1 (b24c23e)
Si           0.27358193632666       -0.74618137994102        0.35176245632740
O            1.63563969859949       -1.55140175538926       -0.09865910021402
C            1.96389844997243       -2.90946674162979       -0.05917116815306
C            3.32596984502411       -3.10344933196802       -0.67739661772460
H            1.20888134086401       -3.47774365305094       -0.62324594094238
C            4.32134146352986       -2.15786019034027       -0.47170672478242
C            3.61225283226929       -4.24302943627443       -1.41629626691923
C            5.58387174897937       -2.34586269346116       -1.00431479364096
H            4.08992934763353       -1.27324014436069        0.10137266318977
C            4.87769116425927       -4.43378464647086       -1.94272729056874
H            2.83981081788640       -4.98122024207156       -1.58016488075107
C            5.86570667102092       -3.48546431771142       -1.73853910335102
H            6.35215330452314       -1.60342749417944       -0.84277962841901
H            5.09244191392651       -5.32364828665035       -2.51654101125847
H            6.85252789053707       -3.63428573858709       -2.15219749204166
C            1.99928488739825       -3.44122172788126        1.39184869123546
C            0.67268841385112       -3.55843090927833        1.95137650322323
H            2.48464995861815       -4.42085509912343        1.39454630844965
H            2.58791665191638       -2.74652766858014        1.99637212603663
C           -0.44032838583906       -3.64128935331660        2.38329843698395
H           -1.40363217889074       -3.72783181682352        2.78827707862576
Cl           1.06041901175364       -0.23173422040544        2.24641008288340
Cl          -1.01532125989486       -2.04448668238674       -0.74767949025762
O            0.53352415019201        0.49473286486028       -0.77090249499920
O           -1.15341548564897        0.08724540720462        1.06235649987978
C           -0.93982261108536        2.30963795492874       -0.54851161844567
C           -2.10914055033871        1.50333139941165       -0.51351881107672
C           -3.35058403889978       -0.34774145305299        0.42531837587692
C            1.45833317292867        2.56643469358176       -0.24903119510668
C            1.35041942817420        3.94381204117051       -0.19051464126032
C           -1.02344216741443        3.70828172669342       -0.67106101754932
C            0.07488917441413        4.49408507461853       -0.49507087055719
C           -3.26140019773858        1.84378532270131       -1.24399116751431
C           -4.37547698589366        1.05988001117598       -1.20323155099795
C           -4.45176210510384       -0.08550406913654       -0.37483364268768
H           -1.99118848597839        4.15624511091860       -0.82550136577901
H           -0.04819026275325        5.55910448975044       -0.56690633244008
H           -3.22280337557878        2.70016564101641       -1.89662942492910
H           -5.21034251537248        1.33593013753503       -1.82152111347085
C           -5.70544201273793       -0.95738070433464       -0.40381625148364
C           -3.27126894129315       -1.38096754155119        1.49852372886241
N            0.34542624062257        1.81124040196867       -0.46270339655033
N           -2.22752935900662        0.40012868270049        0.29795705687882
C            2.70438913689226        1.75311219825421       -0.14143622787109
C            2.50127068840304        4.87942843242546        0.17655531844917
C            3.15483693996841        4.43472574898632        1.49431811444709
C            3.52514381550839        4.95481246701790       -0.96686124207768
C            2.00678567236791        6.31539117551519        0.41600696260041
H            3.66034215705552        3.48114989488543        1.42072563558810
H            3.88660075486057        5.17669375607974        1.80686834999904
H            2.39718045984202        4.35415683129011        2.27027446627749
H            4.31639874949728        5.65368111742162       -0.70461477667244
H            3.98169834426246        3.99638697958806       -1.18792903759695
H            3.03977451452162        5.30989897598092       -1.87361664151247
H            1.22369769602550        6.34070924812634        1.16973698700151
H            2.83719980868624        6.91894823171433        0.77569908201376
H            1.64436403093046        6.77732186140812       -0.49895059423528
C           -5.33560705997051       -2.45160452175446       -0.43166289034002
C           -6.60033083387420       -0.63093803135285        0.80214004097788
C           -6.53579888957408       -0.68540729849340       -1.66860959356188
H           -4.42397014335538       -2.60620735745743       -1.00256747378264
H           -5.19581495556604       -2.86149698740043        0.56140709934204
H           -6.13237652614266       -3.02076377861015       -0.90445796218915
H           -5.93105012047981       -0.81309102348208       -2.56294253180392
H           -7.36079826871361       -1.39291988994410       -1.71236373420094
H           -6.97077567764904        0.31085455040362       -1.66479089994233
H           -6.09508291894415       -0.80129314821156        1.74796119375081
H           -6.90479552725711        0.41321305691082        0.76991232762275
H           -7.49314523344790       -1.25158941449228        0.77601442751867
H            2.69564908907223        0.98175713652077       -0.91023454056992
H            3.60199044450160        2.34460258915547       -0.24728758730682
H            2.71278399886510        1.23869176591179        0.82085909853261
H           -2.84959703182165       -2.29973127951275        1.09451529650849
H           -2.60073466817952       -1.02768365507574        2.28008848301931
H           -4.24327304205849       -1.58213729409183        1.92950124542646
