75
 energy: -112.022103613261 gnorm: 0.000672341052 xtb: 6.5.1 (b24c23e)
Si           0.54575669114479       -0.64681515246605        0.64262274392556
O            0.70302321740308       -1.73496751961235       -0.54993279638048
C            1.17021699429533       -3.06117141886779       -0.47953615442123
C            2.62491300753219       -3.10224183674752       -0.08870150894680
H            0.58083579710528       -3.61005972915654        0.26569368979115
C            3.50162258204457       -2.15431551862213       -0.59765889638180
C            3.09812986746380       -4.06935655887314        0.78560801272317
C            4.83421252993652       -2.16564587575758       -0.22938311139825
H            3.12486377713357       -1.39550946067571       -1.26713116879431
C            4.43338166513623       -4.08534257079342        1.14707478716538
H            2.41445068416894       -4.79732941794636        1.19652288405941
C            5.30276599911481       -3.13330817579500        0.64253107036370
H            5.50732723015537       -1.41640709635269       -0.62017370939808
H            4.79358314898003       -4.83629122450479        1.83459059991672
H            6.34259248354735       -3.14089904627342        0.93466552999599
C            0.96936423498890       -3.69613277711232       -1.86731694106762
C           -0.43208766393874       -3.75562594453899       -2.21914526078165
H            1.39147925090405       -4.70423459387209       -1.85858222316317
H            1.50133170862894       -3.09299824154945       -2.60696327592290
C           -1.59970188127658       -3.78329985922686       -2.48093675467232
H           -2.61490223576747       -3.82319454954857       -2.74240694847725
Cl           2.10417166311689        0.44292340896240        1.48894278629242
Cl           0.57801029754913       -2.06104741308298        2.30986617558428
O            0.34283540591656        0.52870068913200       -0.71229170334287
O           -0.98108250227546       -0.21843083476709        1.24318497060545
C           -0.88269031761564        2.36414053563621        0.03249765309401
C           -2.05141273064310        1.57196646939860        0.15011912123547
C           -3.05883279986517       -0.63416080370186        0.28489149520671
C            1.41425102997821        2.58549100546592       -0.68022640161670
C            1.45427527602064        3.92434932679933       -0.32081970558417
C           -0.88459778218115        3.74574656635562        0.29990840680476
C            0.25101233361094        4.48634178393045        0.16788722869534
C           -3.33451831242881        2.09179077043052       -0.10528441410129
C           -4.40561427767778        1.26283790141348       -0.24440105432412
C           -4.27897187266564       -0.15164004684116       -0.15085016506265
H           -1.78655072619918        4.19536895739873        0.68036406748130
H            0.21061852429119        5.52637884903209        0.43673373157467
H           -3.44371404223941        3.15154796186477       -0.26535687487040
H           -5.36199644550459        1.70239180073379       -0.46061825769955
C           -5.46849262061835       -1.03562635353601       -0.52135937431363
C           -2.70376007831530       -2.04450803420308        0.62130258799070
N            0.30219711877491        1.84936449146840       -0.43616191730414
N           -2.02655617951278        0.23196684522315        0.48092399963120
C            2.48750530419586        1.84122800190359       -1.40242044020690
C            2.70745688276769        4.79170761126847       -0.41908203361177
C            3.94782730688304        4.02698459714910        0.07600321953991
C            2.89949481902057        5.27711775440977       -1.86432653826045
C            2.57935820793131        6.04240123741351        0.46549381923578
H            4.40133872464272        3.42680818138650       -0.70351618779850
H            4.70160690022604        4.73153896241991        0.41910965125634
H            3.68648013571688        3.37744242437714        0.90719910113264
H            3.78870343087487        5.90008858591365       -1.92739628156489
H            3.01140007804406        4.45333324163854       -2.56274900384837
H            2.04137027265181        5.86772143850153       -2.17839355861165
H            2.34749765723935        5.76728297869571        1.49128086821729
H            3.52510837934691        6.57948077616298        0.46335161729695
H            1.82268963986823        6.72933643561162        0.09501718443510
C           -5.04604378098369       -2.09535068695073       -1.55056553851904
C           -6.07718223051015       -1.67775875563591        0.73459582036061
C           -6.59265913017388       -0.22617203340471       -1.18797608424128
H           -4.60852543324634       -1.60574967650441       -2.41823394687378
H           -4.32474705811005       -2.79926933527681       -1.15672001017491
H           -5.91951154574117       -2.65602060724957       -1.87726251869387
H           -6.22722659800299        0.31536553930470       -2.05675312879876
H           -7.36882769668728       -0.91066159071157       -1.52226519132068
H           -7.05439589991816        0.47184693094753       -0.49472788410697
H           -5.37471769150767       -2.30740539957458        1.26895815474107
H           -6.41370175518524       -0.90110544924053        1.41791669273570
H           -6.93522035540309       -2.28604973014352        0.45733100579475
H            2.02399959347964        1.05888543660598       -2.00023156681318
H            3.05217889164890        2.49807020387229       -2.05183028947220
H            3.15872038427246        1.36021041935323       -0.69427705806527
H           -2.00429004726514       -2.42694570614595       -0.12534741297924
H           -2.18836281667689       -2.07001735736876        1.58087800923265
H           -3.56207861958961       -2.69773473756007        0.67634660586144
