75
 energy: -112.022162644777 gnorm: 0.000622188070 xtb: 6.5.1 (b24c23e)
Si           0.26348350137919        1.03221096338721       -0.81774868635932
O           -0.46954860978685        1.92832556402292        0.31381091330360
C           -1.31568181180063        3.04816586686396        0.22131468239645
C           -2.72302119630217        2.64072826662929        0.57755921963069
H           -1.29401231753106        3.44039808379601       -0.80167643215498
C           -2.94083260786051        1.76797777874975        1.63749994980861
C           -3.80660262568813        3.10609348305101       -0.15449377779242
C           -4.22473889035425        1.36467433441823        1.95906678894849
H           -2.09210734131866        1.39265713675735        2.19001027584972
C           -5.09082018316763        2.70459027072088        0.17045503238326
H           -3.63827252440062        3.77235671454999       -0.98734407524437
C           -5.30233211830129        1.83316666941902        1.22579258662797
H           -4.38528914452176        0.68287672651639        2.78175585807765
H           -5.92846992726873        3.06757715131313       -0.40658005235508
H           -6.30469057667156        1.51630419332807        1.47447722125871
C           -0.79202529062674        4.12492356934858        1.19044409614675
C            0.55008740872331        4.51732115094714        0.81776627611832
H           -1.46009358992500        4.98925798358137        1.15823617686810
H           -0.78436756973351        3.71605669365790        2.20404043178717
C            1.66315812120448        4.79200474288114        0.47580119058426
H            2.63590661728145        5.05039111378379        0.18135275495096
Cl          -0.72389131989223        1.89268719644686       -2.55846711718731
Cl           2.13928414590022        1.47189489301767       -1.58968167701877
O            0.94454123216629        0.16073064871609        0.61105033420315
O           -0.35615415287299       -0.43849251803698       -1.40725821172474
C            1.65932864254440       -1.95293348936405       -0.03279436606361
C            0.31869211884573       -2.37115656142876       -0.22389167575727
C           -2.02160481692065       -1.80828979103492       -0.55509942020246
C            3.22066399742428       -0.27083912087587        0.72244927402995
C            4.31018543729768       -1.08588322051783        0.45095639631678
C            2.74968487649579       -2.82559108095896       -0.20426670798765
C            4.02691310325652       -2.39372251676465       -0.00797938587816
C           -0.09105501383068       -3.68916985336036        0.05632381149913
C           -1.41184488355226       -4.01088083058393        0.12535743105854
C           -2.43317856875969       -3.04264717943342       -0.08921287670957
H            2.56124308603547       -3.82302284414591       -0.56486809575496
H            4.82882183051875       -3.08225855118830       -0.20430451231721
H            0.65939496049205       -4.42459616405595        0.29460128721680
H           -1.67550304029211       -5.02330143228102        0.37071767338892
C           -3.88878548884057       -3.40899254213934        0.19205552272408
C           -2.87694868733817       -0.68916904714688       -1.04863611933979
N            1.96930691605848       -0.69464718765008        0.42185248400475
N           -0.69151068022189       -1.53016243000257       -0.64992226827144
C            3.26732392046396        1.05683892353924        1.40165689040358
C            5.76223367887351       -0.64330570916116        0.61676809372955
C            5.96584462084464        0.79231561935493        0.10126853198928
C            6.17916152540542       -0.76312511531206        2.09085765056492
C            6.70523443469569       -1.54267074185160       -0.19890976552484
H            5.74701970655292        1.53580384733008        0.85839074816029
H            7.00191520149119        0.93234758914645       -0.19793603125246
H            5.33457389802411        0.97768396151665       -0.76381114949220
H            7.21606138985603       -0.45633787035536        2.20627249647023
H            5.56698610327425       -0.14438076497373        2.74003237924661
H            6.08503509113334       -1.79442689309210        2.42471877864459
H            6.39735612158656       -1.57871277114096       -1.24089635873835
H            7.71289913783711       -1.13566309483057       -0.15597022204638
H            6.75344055108862       -2.55307107647476        0.19916249504117
C           -4.51227214462344       -2.39330268377820        1.16305077981602
C           -4.68723131299128       -3.51406441222651       -1.11671429873464
C           -4.00877964914396       -4.77728352254566        0.88271381493408
H           -3.96931354424055       -2.41417871060891        2.10588611139388
H           -4.49500233128601       -1.37609525541831        0.79221145840255
H           -5.54759764831725       -2.66382570604461        1.35983604838713
H           -3.41828108283675       -4.81387282544086        1.79502697170440
H           -5.04943488575235       -4.94469079879727        1.15197543035173
H           -3.70846098583424       -5.58873872782034        0.22455622108726
H           -4.74395350544343       -2.57541263012876       -1.65543146266449
H           -4.22157844299940       -4.24745002158094       -1.77175802662202
H           -5.70200099738365       -3.84205838739279       -0.90196954959582
H            2.32165317236697        1.22560940625079        1.91197359290162
H            4.07560349576904        1.10020930233018        2.12109043022619
H            3.38176416967296        1.85616932766728        0.67370975946443
H           -2.71633647204060        0.19494784862510       -0.43096488913884
H           -2.56769170154547       -0.42120060305678       -2.05922941943065
H           -3.93044653237102       -0.92435633866393       -1.05834372074038
