75
 energy: -112.017243717627 gnorm: 0.000847730855 xtb: 6.5.1 (b24c23e)
Si           0.18400429013827       -0.79537486576511        0.21002280963150
O            1.14203494726371       -2.08556520859979        0.01945037587990
C            2.23394560276199       -2.61858972165078        0.72001644180240
C            3.41878203526373       -2.77352880617755       -0.19868088750827
H            2.49584142310524       -1.95812019343047        1.55477638380585
C            3.23761165438337       -2.93346031626860       -1.56522367683493
C            4.70519170419562       -2.78909324555337        0.32517151400256
C            4.32955148831740       -3.10351844533734       -2.39797888006402
H            2.23621999863503       -2.91206622149459       -1.96651301828929
C            5.79508039707831       -2.96725325381382       -0.50758276906797
H            4.84964238490960       -2.65750500328292        1.38823949816107
C            5.60943084273760       -3.12485788130522       -1.87108093439226
H            4.18013584406046       -3.22369084148284       -3.46113142109521
H            6.79239288075630       -2.98012348840262       -0.09238295275968
H            6.46153188285488       -3.26209721671121       -2.52075969463190
C            1.81336222335516       -3.99487115229328        1.27820810751648
C            0.70078710805315       -3.84682098123402        2.19023575413810
H            2.66353606060987       -4.45106186272206        1.79092789440586
H            1.51367338823215       -4.63172243013380        0.44162929035333
C           -0.23711619098765       -3.66525652697676        2.91052846733653
H           -1.04047165836153       -3.53172961445334        3.57133740354479
Cl           1.23897013440153       -0.00259500919317        1.95159707389808
Cl          -1.09150791979804       -1.75311528141001       -1.25378614829779
O            0.52157018762187        0.47229457544173       -0.86760294810600
O           -1.16104732008914       -0.10741569710175        1.03951844550446
C           -0.93791938885360        2.25744885639774       -0.40259352853115
C           -2.11980507399183        1.45983029951400       -0.38416426983376
C           -3.36469938121413       -0.47643008424842        0.38003654787470
C            1.47810732206238        2.53367272878562       -0.37035304966994
C            1.37238574398815        3.89814074673159       -0.16636228126428
C           -1.03962318675320        3.65960623363113       -0.36179480062307
C            0.06448825296538        4.44734595403322       -0.23468873600194
C           -3.28794736326560        1.88623339916145       -1.03881739001805
C           -4.41485651148440        1.11876275209643       -1.04351181221730
C           -4.48337414727608       -0.11456117492461       -0.34959717017719
H           -2.02227039418425        4.10167230447625       -0.34834371848667
H           -0.07804698973999        5.51025535544332       -0.16788838613456
H           -3.25291456774645        2.79873993813626       -1.61093075949480
H           -5.26094785803095        1.46849541232721       -1.60658777045115
C           -5.73878473355066       -0.97732191571614       -0.45139665239033
C           -3.23521063817551       -1.65150772162989        1.28919046320600
N            0.35428191957713        1.77652626544068       -0.49353575876716
N           -2.24971662250259        0.29222332295593        0.32993132684623
C            2.73242943592040        1.74009410671789       -0.52456676179988
C            2.55662588514099        4.81567244617601        0.13240039961502
C            3.36283548140616        4.26881335249115        1.32059057836414
C            3.43415732581763        5.00337001626396       -1.11514090770793
C            2.09239260817778        6.22065826196485        0.55004154777507
H            3.82047383872243        3.30883846707537        1.12207796764682
H            4.15230339375670        4.97073960749406        1.58076889227040
H            2.70920856205107        4.15358130514486        2.18207607770516
H            4.24081220086172        5.69845060660119       -0.89292783075695
H            3.87635285874192        4.07797382526812       -1.46650000662042
H            2.83824665963293        5.41750266871720       -1.92583811665086
H            1.41291998035218        6.17562719640613        1.39747988075651
H            2.96089378161033        6.80310968490341        0.84966081196228
H            1.61465476644659        6.74988071312129       -0.27089205605977
C           -5.36327144151039       -2.44384004078064       -0.73543590664665
C           -6.57087505023875       -0.85042367404298        0.83460455292283
C           -6.63537121544919       -0.51850453250721       -1.61185639016188
H           -4.46712696070670       -2.49180565796741       -1.34804080365656
H           -5.19125904070932       -3.01150893718412        0.17124281931156
H           -6.17052379051170       -2.93476796347439       -1.27328449825491
H           -6.08628651515793       -0.52525104842661       -2.54990091544297
H           -7.47460865570972       -1.20434678910411       -1.70435581245655
H           -7.04968229885139        0.47191689503585       -1.44026327630933
H           -6.01055196269786       -1.13506575177680        1.71962444184841
H           -6.89954472345525        0.17855263999992        0.96594298828499
H           -7.45023761719845       -1.48696751423036        0.76782870152388
H            2.63619044177335        1.08433140900178       -1.38921298842415
H            3.60841408964420        2.35860615052566       -0.65019159250356
H            2.85896367580384        1.10014032417451        0.34981639818814
H           -2.74012986612591       -2.46536617461500        0.76025410390814
H           -2.60492650165483       -1.38027886589846        2.13420028801235
H           -4.19440911721285       -1.98818171033691        1.65688903055980
