75
 energy: -111.937116894449 gnorm: 0.000644927419 xtb: 6.5.1 (b24c23e)
Si          -0.06550158785022       -0.96643334598774        0.87033958358974
O            1.33907572084692       -1.90053165739944        0.38418754393073
C            1.68016857248787       -2.36442921836729       -0.75385878671611
C            3.00957188175354       -2.74372812924394       -1.04992043550799
H            0.92019576522290       -2.47005564054647       -1.52609529848350
C            4.03595489469538       -2.60233829681481       -0.09152631088190
C            3.33652876682486       -3.27545066760940       -2.31429935304225
C            5.32447865062542       -2.97525261131916       -0.39256093022088
H            3.77638758248368       -2.19863670778098        0.87565763488462
C            4.63085405610593       -3.64463587025342       -2.59938874807352
H            2.55504418521337       -3.39266466324383       -3.05035894526294
C            5.63147877457709       -3.49702189190117       -1.64491323299453
H            6.10452988690286       -2.86578972853682        0.34700184144933
H            4.87374263010051       -4.05412839515017       -3.56929474991291
H            6.64475016479286       -3.79010426897144       -1.87542605382928
C            3.48007750697862       -0.36272075734068        2.67721341634584
C            2.23158267533546       -0.11954788468431        2.41017670573890
H            4.29280118409389        0.15651930163437        2.19162415823975
H            3.75670451506739       -1.08389137159979        3.42974068684715
C            0.99410255708640        0.08035945132026        2.10432121565429
H            0.43635574153496        0.82873438003983        2.65054896831968
Cl          -1.37242259722439       -1.97750539125760       -0.63318755341870
Cl          -0.61959217009846       -2.38484848837161        2.37862406174081
O           -1.42447438347206        0.23292109734284        1.29829695378656
O            0.27506020020769        0.18089544134383       -0.63611315884481
C           -2.10828541252640        1.52623305957978       -0.44638944424032
C           -0.82175640170097        2.19393088902466       -0.41806572233862
C            1.57224291221202        2.07096036537051       -0.45806144345899
C           -3.55071775540218       -0.14641764979337        0.47138301617141
C           -4.53814710944206        0.14075321184768       -0.47316084379235
C           -3.12499320600397        1.92578520320505       -1.30395092579660
C           -4.30531231167081        1.22287367421015       -1.33469542684035
C           -0.73038363910713        3.58068009482092       -0.38043412059995
C            0.49333448818059        4.19136611715492       -0.27405288715504
C            1.68854024017699        3.44372414847686       -0.27063813526204
H           -2.94683263515598        2.74299873868839       -1.98428514587332
H           -5.05121145646470        1.51978771790540       -2.04986714348397
H           -1.63954418700501        4.16033339746136       -0.37218425239170
H            0.52091852853986        5.26251793833948       -0.19428967705631
C            3.02214307016428        4.15711351692669       -0.05640511969746
C            2.66762696325952        1.09214050383911       -0.71601656257671
N           -2.37882507145163        0.52420420915840        0.42748964619397
N            0.34453597465880        1.48870722138639       -0.47702889648933
C           -3.65333145712839       -1.10821555267904        1.59858487510460
C           -5.82553164883503       -0.66920821085254       -0.60460052696057
C           -5.52557957392289       -2.17630709949373       -0.52349096427955
C           -6.82635279828459       -0.24063311970209        0.47959709430221
C           -6.49700655519142       -0.42243778345013       -1.96502143914530
H           -5.49180103166066       -2.53661093752850        0.49723240961352
H           -6.30385055017597       -2.73423893922157       -1.03841179656123
H           -4.57469352186388       -2.39889195717090       -1.00035582514375
H           -7.73394134498981       -0.83317081163965        0.39344868722676
H           -6.42898078795974       -0.37128703810238        1.48116146045632
H           -7.08677693573130        0.80887914888435        0.35672766950181
H           -5.80618963767424       -0.62683987908737       -2.77911117247805
H           -7.34866160205594       -1.09101177911283       -2.06690120885863
H           -6.87637604326339        0.59248321844849       -2.05709372436280
C            3.84738363684263        3.43247517621959        1.01874768830286
C            3.79350505597825        4.26736719898254       -1.38030950855526
C            2.81411330199331        5.59078123726835        0.45783148942955
H            3.23679805593226        3.25911314174582        1.90183593784931
H            4.23328185848086        2.47884462692460        0.68374661905577
H            4.69557322105238        4.05027743888570        1.30519553236532
H            2.20636812960601        5.59931971898231        1.35928588975852
H            3.78200989018645        6.02242292155744        0.70203379280098
H            2.35749200318774        6.22997980669165       -0.29370350703893
H            4.02095362944907        3.29976946109856       -1.81487132875496
H            3.20815398580916        4.82981071781394       -2.10483575850457
H            4.73116091876820        4.79267262793198       -1.21415157172982
H           -3.03032346279727       -0.76236066986468        2.42181472046473
H           -4.67234757859116       -1.22978227154979        1.94107249847470
H           -3.24985855230949       -2.07629890200493        1.30463422010152
H            2.82906109616606        0.47179931922187        0.16548453933134
H            2.34609378271398        0.41983931889421       -1.51237992559817
H            3.59433035070896        1.56437982899055       -1.00936099481740
