75
 energy: -112.025063542957 gnorm: 0.000669165202 xtb: 6.5.1 (b24c23e)
Si          -0.36527396205892       -1.53351774791787       -0.51381840826131
O            1.24255331165597       -1.39141843066795       -0.26325142981490
C            2.19781027796611       -2.29079778109784        0.23768628375235
C            2.90706973047523       -1.71512641438218        1.43733741604310
H            1.69941855365889       -3.22543363995582        0.51975855927125
C            2.92791760636337       -0.34859833933870        1.67317038767755
C            3.59112156727469       -2.56125430586637        2.30232572938022
C            3.62339895605258        0.16764755224861        2.75262465562788
H            2.38749049192548        0.30915828321040        1.01160971311443
C            4.29063492865672       -2.04492224345219        3.37731288109291
H            3.56611453616078       -3.62827063861894        2.13408216291546
C            4.31148232634799       -0.67813625409891        3.60411982295836
H            3.62620960162333        1.23456075856125        2.92659634484825
H            4.81876945306964       -2.71082034508177        4.04396651750834
H            4.85775491380268       -0.27619702372313        4.44477503221410
C            3.23444800718410       -2.59599084046227       -0.86745120077171
C            2.56615032823929       -3.05762340991228       -2.06517119301047
H            3.80476541342213       -1.68807926194778       -1.08572389634259
H            3.92287845450419       -3.36133392240528       -0.50248339095030
C            1.94486208976134       -3.39575695426013       -3.03043079473079
H            1.40647787848785       -3.71134620740910       -3.87302018373154
Cl          -1.24156091665477       -2.23514312488123       -2.23969776429871
Cl          -0.65053849162268       -3.39059647962441        0.55391692257036
O           -1.29992428906232       -0.84386583068107        0.73034524227990
O           -0.36482173537899        0.05467154983228       -1.38097526656424
C           -1.52158004522339        1.50494579437509        0.64300268768511
C           -0.19971868858219        1.75564747695281        0.19914251986768
C            1.56725206573903        1.32905608886971       -1.39684036728832
C           -3.45014284427096        0.02920737724459        0.69787456527150
C           -4.30648368699603        1.08441986679033        0.95261752815266
C           -2.36139914174459        2.54135387693553        1.09335365088160
C           -3.69879469937516        2.33693210270469        1.24639664100332
C            0.59063841257097        2.79433766355751        0.72692859390644
C            1.84792711684897        3.02569614247379        0.25598120751772
C            2.39112639907992        2.29084924452333       -0.82747562199548
H           -1.94237301677408        3.52310345318545        1.24036065545243
H           -4.30391888994275        3.16379329356745        1.57013148989952
H            0.20712541893541        3.36331569010710        1.55735440198769
H            2.42886393683812        3.79753264805058        0.72716218044629
C            3.81821463379742        2.57638292980176       -1.29150003972753
C            1.81539400465639        0.53368968893917       -2.63450661526818
N           -2.10840789768017        0.25477441023836        0.62102571501654
N            0.36059050719883        1.05846245123659       -0.84332036309934
C           -3.79992402779993       -1.41222228643663        0.53061492997790
C           -5.82974074486541        0.97348903154890        0.94423022404047
C           -6.31523998628426        0.39913722875743       -0.39602553733758
C           -6.31710908548262        0.13528347143269        2.13653787911474
C           -6.50335483259932        2.34900974979774        1.07742411397926
H           -5.92545902001357       -0.58817766553242       -0.60719533159641
H           -7.40148006864867        0.33947325307275       -0.39552901878507
H           -6.01027246923818        1.05825318770586       -1.20620969285806
H           -7.40452359997925        0.11708578103523        2.15190418880838
H           -5.96354193383733       -0.88877885447174        2.10763282643874
H           -5.96871317272979        0.58225369418448        3.06529286986372
H           -6.16628799247183        3.03171690841074        0.30113745408112
H           -7.57850638414523        2.22493561166685        0.96794727463531
H           -6.32520374176075        2.79348131904658        2.05345960762119
C            4.63651192026670        1.27671629912274       -1.35491890125569
C            3.80502408658223        3.30480351146134       -2.64445217596865
C            4.56322920141527        3.49121264625449       -0.30625851045025
H            4.60108210531660        0.77465649799991       -0.38964091796580
H            4.28271187396504        0.58929573954048       -2.11288069902783
H            5.67551695042921        1.51025475856528       -1.57856416168814
H            4.57345580984858        3.06555798959885        0.69428787691006
H            5.59530088943343        3.59468520510455       -0.63412878923460
H            4.13248578389599        4.48898268992561       -0.27392502436156
H            3.32965466959384        2.72657108129657       -3.42920025550930
H            3.26638838302071        4.24565560453542       -2.55068531916983
H            4.82458141355530        3.52251063512785       -2.95468380793876
H           -3.20751647435428       -2.00978109499710        1.22377865055986
H           -4.84551755711848       -1.62080680178887        0.69956592912405
H           -3.52496548421338       -1.73929470934809       -0.47352259326134
H            2.63801619907200        0.91205671432195       -3.22384323407466
H            1.99178479666053       -0.51142127864056       -2.38341178562727
H            0.90784687559854        0.55001793404149       -3.23851204151310
