75
 energy: -112.025814982410 gnorm: 0.000516091966 xtb: 6.5.1 (b24c23e)
Si          -0.13496200180314       -1.44445655856393       -0.91786764236196
O            1.43912104082553       -1.41921816868362       -0.48227861900374
C            2.15780422574635       -2.28645974118414        0.36791617685458
C            1.84089479968726       -1.94418014933173        1.80140552706936
H            1.86193810360027       -3.31963853155395        0.15657214350275
C            1.94741335252608       -0.62631456117814        2.22767117948971
C            1.39386231610195       -2.91184678121084        2.68865337953455
C            1.61130114248477       -0.27909666824720        3.52296682672485
H            2.28192615989946        0.13308334522312        1.53531315295300
C            1.06573291031628       -2.56505032984478        3.98789628744747
H            1.28668151959827       -3.93225647225205        2.35337102227683
C            1.17246421084557       -1.24993861092708        4.40733626803714
H            1.69084452691482        0.75111063704692        3.84054751882070
H            0.71553502732806       -3.32336356387501        4.67255507297330
H            0.90885921589430       -0.98037473780645        5.41988316759524
C            3.65846237615241       -2.11637092404886        0.07590095290413
C            3.93843846568093       -2.36626466153601       -1.32159521028593
H            4.21664649264104       -2.81893164127915        0.69967820717340
H            3.96374397748698       -1.09860586376840        0.33079995273552
C            4.11586027497463       -2.54856899423197       -2.49105788444181
H            4.28831520264555       -2.72591707540574       -3.51030644692750
Cl          -0.76632679282214       -1.83253150768690       -2.83780420814186
Cl          -0.57566911349515       -3.43985976977697       -0.21121886785514
O           -1.22560645025331       -0.93654105446848        0.28529709469236
O            0.01280274498483        0.25881533956741       -1.50461186404811
C           -1.43896087154043        1.39990697403686        0.53362678061263
C           -0.06766157137315        1.69090295437326        0.32956755248777
C            1.91947375088341        1.49032807344120       -1.03598540977817
C           -3.35135091764858       -0.02617690167364        0.07608710502405
C           -4.23796444240929        0.99703039810184        0.35723221505056
C           -2.33898877714159        2.37260216334706        1.01006680352949
C           -3.68372160058494        2.17597988776111        0.92905319419423
C            0.62414360190475        2.62809855939734        1.11940361166040
C            1.92427152223545        2.94102883230321        0.85963078479145
C            2.62305076741972        2.38640955194450       -0.24108436001718
H           -1.94877880856595        3.31117688859442        1.36717664873809
H           -4.33254117029380        2.95612182232386        1.28293754552768
H            0.12115119023035        3.05527613512259        1.97085223551553
H            2.41690391814040        3.63406053795369        1.51725433020133
C            4.06845961141848        2.80682195722871       -0.50346409406055
C            2.38372114868210        0.83229625342468       -2.29143150266125
N           -2.01438451570597        0.18070626499926        0.23573965705902
N            0.64763926878244        1.15080877769883       -0.71259575851460
C           -3.67001557306848       -1.41776841357208       -0.35927583255371
C           -5.74058000584201        0.92516735613288        0.09376591505590
C           -6.00377919819925        0.57361880193616       -1.37912429363337
C           -6.41336361802687       -0.07274316788290        1.04937197962544
C           -6.42697480398059        2.28043279678492        0.32943765073001
H           -5.58719010563868       -0.38090130332146       -1.67355563014384
H           -7.07577759419137        0.54440277858420       -1.56208091172529
H           -5.56935432757297        1.33892375178483       -2.01900166582008
H           -7.48776088443458       -0.07541482808699        0.87902227679520
H           -6.05065732997365       -1.08682309605579        0.92818085455889
H           -6.23025070794985        0.22595056050044        2.07954144766256
H           -5.97046388310762        3.06489775806857       -0.26934679132628
H           -7.47100777419851        2.20085822655422        0.03438348849093
H           -6.40638499226841        2.56647965227988        1.37815885135168
C            4.99650083170246        1.58307998469798       -0.56010083060565
C            4.14643629831980        3.64446743770521       -1.79053004522180
C            4.62275522431185        3.69862714356187        0.61961819669619
H            5.02663650870647        1.10647597725107        0.41851643188301
H            4.69048645987850        0.84137167906423       -1.28731736981275
H            6.00687491584821        1.90222988486115       -0.80768069862164
H            4.57585609181217        3.20069669917890        1.58539025181302
H            5.66833710537287        3.91383506847542        0.40981646690958
H            4.09806095707017        4.64936592849313        0.67537962214074
H            3.84361408056823        3.09592464034663       -2.67479019340559
H            3.49965511515274        4.51490929089468       -1.70000759711396
H            5.16657464525077        3.99041532850543       -1.94168744573859
H           -3.18427155168862       -2.12585694950490        0.31250825926653
H           -4.72875793120347       -1.62791854623783       -0.37788177560343
H           -3.25076105027803       -1.59439885792724       -1.35115885261359
H            2.52913553606268       -0.23359691572526       -2.11174897642393
H            1.59461780623184        0.91455670221460       -3.03876406904823
H            3.29500792293783        1.25591754508101       -2.68657124064784
