75
 energy: -137.336214096333 gnorm: 0.000724767720 xtb: 6.5.1 (b24c23e)
Si          -0.24802293946245        0.91184746621646        1.02550392941966
O            0.56256003002437        1.80012188353691       -0.04109135021428
C            1.38315806078733        2.93657831613442        0.09081262792556
C            2.64843539922064        2.71069403830842       -0.69636596419597
H            1.61818274867980        3.09604240923227        1.14994972158839
C            2.60568125176259        1.98601927445934       -1.88011846634018
C            3.85888186199283        3.22682457212757       -0.25603262453912
C            3.76174091925558        1.77428887289923       -2.61009777821175
H            1.66118661530356        1.57973686640600       -2.21013870646903
C            5.01334355590772        3.01741794197002       -0.98944716213340
H            3.89550242432965        3.78523481345554        0.66764441712708
C            4.96795283740978        2.28929596994382       -2.16611664124802
H            3.72211190882403        1.20832101930149       -3.53026524389066
H            5.95292959564681        3.41849644787538       -0.63872561394351
H            5.87098502578937        2.12152562885940       -2.73475674440815
C            0.62099411950806        4.16054401449729       -0.45278992016078
C           -0.58313404376041        4.38940601592332        0.31640607321347
H            1.27278012415092        5.03630231884353       -0.40368345551018
H            0.35358308213202        3.96947447559901       -1.49535531033016
C           -1.57767526804082        4.52489505789713        0.96699141750898
H           -2.45463738629775        4.65529979473211        1.52669057478535
Cl           0.52329048170017        1.67647854750581        2.83629314964936
Cl          -2.21830634888451        1.07684366193135        1.66983394579306
O           -0.85188826173562        0.08929126055991       -0.55275348810990
O            0.38560252145373       -0.62847915155247        1.48042825532545
C           -1.48526445880336       -2.08419339961557       -0.09865889455245
C           -0.12419372092218       -2.44343836045258        0.06380109493834
C            2.15370622431103       -1.79590091395078        0.51424952202705
C           -3.10035844547448       -0.40936755727266       -0.69205502191783
C           -4.17204285460244       -1.21309246933133       -0.34115603221737
C           -2.55094539441169       -2.99915647395614        0.00855466473396
C           -3.83828323172039       -2.56175496408295       -0.03754129094880
C            0.38327603496589       -3.67702720309061       -0.39729261044950
C            1.71494693699206       -3.83340706862357       -0.60721415639164
C            2.65783174100265       -2.80557526283169       -0.28340577695254
H           -2.32822194388675       -4.02927713721069        0.23287848599713
H           -4.63119124452978       -3.26723321799846        0.13646785485676
H           -0.31282335494105       -4.44819246275966       -0.68373652750637
H            2.07796390496996       -4.75570350920390       -1.02367386803512
C            4.04291736553043       -2.87041903869666       -0.91664080282489
C            2.96506598225982       -0.93284998026922        1.46628569293598
N           -1.82200707420596       -0.81044063038680       -0.46397021920427
N            0.81100219125889       -1.59895637191981        0.63269024338013
C           -3.17994112563572        0.83715362861922       -1.56076418488744
C           -5.61885179605778       -0.76987637165554       -0.16837186301567
C           -5.73002499098788        0.73393046420284        0.11660290038946
C           -6.45698965298190       -1.15946689458219       -1.39360750277641
C           -6.19251298967205       -1.49039814769067        1.06735164604997
H           -6.69709004096451        0.94399129339233        0.56660254766627
H           -4.95560349661735        1.04668039447929        0.81314862044735
H           -5.66737279941111        1.33553013899283       -0.78159160761330
H           -6.11962440203118       -0.63765238952702       -2.28302662827761
H           -6.39431520466503       -2.23004205635588       -1.57646675822298
H           -7.49723265859389       -0.89941328766771       -1.21661143023465
H           -5.52488389219212       -1.37588418561200        1.91732289709377
H           -7.15036075196915       -1.04626116085112        1.32422491558609
H           -6.36865773583515       -2.54740078363550        0.89052522916124
F           -2.15725855785053        0.88984304682369       -2.42489565924035
F           -3.23595131136767        2.01244422388084       -0.94766123707994
F           -4.25891295857123        0.77294408736071       -2.36906298977290
F            2.44697246032900       -0.95843744951567        2.69799392171156
F            3.08707856424237        0.33947859346661        1.08696287990158
F            4.21124696574691       -1.39600205008524        1.65100729290718
C            4.60384022931622       -1.46234746439525       -1.17351248037012
C            5.01339996641247       -3.71676915065141       -0.08201860423130
C            3.90771668599130       -3.53810965268916       -2.30033000046974
H            3.83372968527380       -0.81025214903839       -1.58014487340086
H            5.01634357314873       -0.99665207168995       -0.28829926854484
H            5.41134061159009       -1.52212855214777       -1.89894043044988
H            5.21449861179236       -3.26465254486026        0.88218171320273
H            4.60296632571360       -4.71082695052420        0.08166040672940
H            5.95493661225509       -3.81542762819063       -0.61592848559856
H            3.10332100843988       -3.08380249933405       -2.87368558606014
H            4.83530812903719       -3.40417843963829       -2.85052532527700
H            3.73155696262219       -4.60720148587505       -2.22790405581269
