75
 energy: -137.332516195648 gnorm: 0.000720440932 xtb: 6.5.1 (b24c23e)
Si           0.23879906286296        0.90236497048223        1.00295483195238
O           -0.73736778885820        1.61228039403272       -0.06208364975117
C           -1.54371895423793        2.76361456385750        0.01056157364969
C           -2.76942404128719        2.53291122722932       -0.83544065828933
H           -1.82646489491890        2.94548899675011        1.05462474378413
C           -2.66004128029489        1.82979665725782       -2.02838530032412
C           -4.00548083542812        3.03115206800058       -0.44892421917065
C           -3.77399864832328        1.62712421291175       -2.82384566394955
H           -1.69674426406631        1.43501797854618       -2.31469585278860
C           -5.11765324217961        2.83178379337137       -1.24797504607603
H           -4.09426406647239        3.57086169151231        0.48214169696902
C           -5.00462048963901        2.13041710525897       -2.43641333626863
H           -3.68204036311385        1.07725515577033       -3.74983181177702
H           -6.07677955499633        3.22184713284770       -0.94074737663451
H           -5.87396197724526        1.97428892686013       -3.05834981071546
C           -0.75078627112650        3.97205586805986       -0.52445581091563
C            0.36590855921802        4.28207828315604        0.34133926290463
H           -1.42019098453329        4.83320063562464       -0.59446536773770
H           -0.37616414204684        3.72336754792629       -1.52067523885093
C            1.28582614643544        4.50440926287338        1.07313799565723
H            2.09660145885522        4.70189748484015        1.70830405836987
Cl           2.21530177908822        1.24104073957170        1.55334588230192
Cl          -0.51309705218136        1.70720593277076        2.80342259183607
O           -0.24713972197220       -0.67642916421340        1.50334398596880
O            0.87427105377941        0.07697905365496       -0.57899370355642
C            0.13354906350318       -2.41435847959068       -0.03586764521857
C            1.50292085976910       -2.08494405476885       -0.20693642710711
C            3.15752706993801       -0.39319030153265       -0.64994445925525
C           -2.10233191375572       -1.76731136162432        0.59524309332846
C           -2.67181569950302       -2.69852279832048       -0.25101610237312
C           -0.42565672698718       -3.58548994302414       -0.58569332233910
C           -1.77045475983724       -3.70190282969215       -0.73141868968296
C            2.53254021231335       -3.03862340774205       -0.20022656267017
C            3.83248995913064       -2.63960555421711       -0.25595681084967
C            4.21135152352977       -1.28198832310844       -0.43180415497957
H            0.23723870311306       -4.33369455800381       -0.98859644908524
H           -2.17385083935325       -4.57316079561169       -1.21501299557537
H            2.28164515582097       -4.07681412008838       -0.05815902107835
H            4.59294580287614       -3.39404170222482       -0.18351588419675
C            5.68156686042748       -0.90907735703231       -0.23522461642065
C            3.35398319707604        0.95718379578458       -1.33520517226920
N           -0.74979789046001       -1.60321102428472        0.65084829467241
N            1.86956172898093       -0.79281194810796       -0.48813314546407
C           -2.85866071918296       -0.98034527913730        1.65250835286894
C           -4.10204553830500       -2.71026819927874       -0.77830011279307
C           -4.98456351757525       -3.68014651863035        0.01902544608832
C           -4.71294424953673       -1.30049713838956       -0.80776781274544
C           -4.06438874377989       -3.19410702186415       -2.24246439288924
H           -5.96991316459086       -3.72885783832799       -0.43679923995695
H           -4.55167307919893       -4.67801074116209        0.01502950936618
H           -5.09979084428592       -3.35976645059803        1.04835222872464
H           -3.98524942130078       -0.56992715203498       -1.15435317511297
H           -5.55327734083326       -1.28562552820672       -1.49733641302254
H           -5.09609025002662       -0.98251266300006        0.15312969914141
H           -3.85703134292475       -4.25683824393274       -2.32345369288609
H           -5.03627050612792       -3.02314015954823       -2.69751624236071
H           -3.32001078408970       -2.64303784182973       -2.81175953738210
F           -3.10595352423547        0.28984381619545        1.32998678683678
F           -2.23053563089032       -0.99970605611613        2.82952928254060
F           -4.04750825582210       -1.54209334351031        1.93579147286842
F            2.27317532279800        1.67215297725391       -1.61574014376800
F            3.90276529989131        0.71042980317536       -2.55480853437348
F            4.18324751838843        1.79801713656363       -0.71701120598998
C            6.31222140171233       -0.15918410196989       -1.41821597214671
C            5.75953801013614       -0.07505125952056        1.05635080477510
C            6.55840690004774       -2.15165432075768       -0.00660471133685
H            6.03410746274764       -0.62368748649189       -2.36105273904474
H            6.03915826609860        0.88714972480097       -1.44552573901428
H            7.39489746103776       -0.20067522002349       -1.32792994463152
H            5.12399781187042        0.80123536504561        1.02546439147634
H            5.44833834637819       -0.67813475495125        1.90630359929110
H            6.78560891743307        0.24555133617352        1.21605132377024
H            6.57358535243756       -2.79764297584261       -0.88164103029987
H            7.57770938126775       -1.82130214846696        0.17781772178644
H            6.24378866658050       -2.71732147137187        0.86650831418768
