75
 energy: -137.336314842929 gnorm: 0.000626850437 xtb: 6.5.1 (b24c23e)
Si          -0.23095337743462        0.68169561028471        1.15087414206852
O            0.52526913349854        1.82438100580823        0.31261853703811
C            1.31892267369718        2.92179917943426        0.69690730034530
C            2.61351045298084        2.87860009918946       -0.07354570750956
H            1.51807143989023        2.86943750218013        1.77397446825679
C            2.63233443426610        2.37823569591459       -1.36858843436889
C            3.79146616476273        3.34011580352083        0.49661008140016
C            3.81732241113309        2.33242692660847       -2.08088232576633
H            1.71272092101056        2.01295248263187       -1.80071607491901
C            4.97472552237252        3.29825690010744       -0.21924507830748
H            3.78041305389288        3.72319287253773        1.50646329723273
C            4.99090704236345        2.79213860953463       -1.50793128797442
H            3.82602670111737        1.94049003302828       -3.08829143272020
H            5.88882408874721        3.65532392476065        0.23215385447582
H            5.91658337271307        2.75414777913295       -2.06364266741454
C            0.54407295562781        4.21651330317412        0.38426735402533
C           -0.68464273051449        4.26381571507614        1.14732748890023
H            1.17343262352851        5.07621951875625        0.62662930419586
H            0.30870209151651        4.23241079651450       -0.68296835117827
C           -1.69749962690422        4.24416602955918        1.78340171968826
H           -2.59184106226655        4.23519772702996        2.33050837347782
Cl           0.48432045287025        1.06894277874111        3.09859294832957
Cl          -2.21706243745251        0.66680863602635        1.76257753665074
O           -0.76723555409297        0.16612906063778       -0.57592835706479
O            0.45984739661939       -0.89191109241991        1.30340322500614
C           -1.39418473022163       -2.05624631223215       -0.54473151495308
C           -0.03749553942960       -2.43947419321858       -0.41006837383145
C            2.23633494754955       -1.87120663502553        0.16315637585219
C           -3.00159094627663       -0.30429349834782       -0.88123834961588
C           -4.07992672225635       -1.15663428066108       -0.71437106411719
C           -2.45912140690843       -2.97539329973275       -0.63269675983766
C           -3.74682538453743       -2.53708449265138       -0.64376031846394
C            0.47755234218960       -3.59136681336173       -1.04356248213723
C            1.81207713342611       -3.71972900331225       -1.25123194083913
C            2.75179313889700       -2.75351515781173       -0.76721137815821
H           -2.23995570293383       -4.02916329700320       -0.58421500104680
H           -4.53983621555500       -3.26328727801183       -0.62225065386569
H           -0.21298605947682       -4.31040387552685       -1.45251691734575
H            2.18015292436809       -4.57290922104755       -1.79169386873978
C            4.14615289390079       -2.73311661352093       -1.38424389407260
C            3.02031930969900       -1.14290835149616        1.24323704900499
N           -1.72896306094768       -0.73909142143837       -0.68854676942222
N            0.89095002478285       -1.69653461586320        0.29702022566574
C           -3.05308016863472        1.08346614402794       -1.50217195030069
C           -5.53203254208551       -0.74770232648713       -0.50464258367287
C           -5.64587355110420        0.66800785322011        0.07740656809288
C           -6.33123991377447       -0.87311979668444       -1.80888700649594
C           -6.15036627696622       -1.69839412211632        0.53879246112694
H           -6.62916202599033        0.79561141233164        0.52307219364450
H           -4.89784428220186        0.82001352225622        0.85210105296177
H           -5.54221217174595        1.44006422926417       -0.67458880156176
H           -5.96907929296663       -0.18182492167902       -2.56235180920735
H           -6.26104752420145       -1.88399572886533       -2.20501334652281
H           -7.37683218928969       -0.65035386906672       -1.61327105880808
H           -5.50939827535592       -1.77168472643673        1.41341799358462
H           -7.11191717298278       -1.30232692231220        0.85375755495649
H           -6.33040615680312       -2.69308909339113        0.14138239961003
F           -2.01497651332713        1.27713824354485       -2.32788467944701
F           -3.09989178075017        2.12156281888944       -0.67745720170414
F           -4.11856103441031        1.19471160860800       -2.32181743788875
F            2.52801405339134       -1.42408591771711        2.45426513491375
F            3.04988509143785        0.18180692395354        1.09408796278501
F            4.29912098779754       -1.53628207527100        1.33360304040015
C            4.66170817786876       -1.29062249232284       -1.51240320589586
C            5.13070588768869       -3.62436030033293       -0.61475483596724
C            4.05756433722736       -3.28149359598413       -2.82280298086194
H            3.89957228674265       -0.65660985991108       -1.96102565628531
H            4.96012830574202       -0.85013664685875       -0.57057277089019
H            5.53694982845650       -1.27780453193722       -2.15725159892252
H            5.32555319654239       -3.25092608727300        0.38321591835681
H            4.73616492031708       -4.63517637703937       -0.53422377988674
H            6.07416526807879       -3.66429677510934       -1.15299120610868
H            3.24158201666619       -2.81547953693386       -3.36953148897229
H            4.98519873536450       -3.05823868568750       -3.34313012083330
H            3.93133468907320       -4.35987790416486       -2.84545303813930
