75
 energy: -137.335296821122 gnorm: 0.000461051195 xtb: 6.5.1 (b24c23e)
Si           0.31008028732748        0.86139925018709        1.46928626120218
O           -0.23061849241310        2.22362632874222        0.81840179966520
C           -0.11931332032295        2.83598670067096       -0.45355907034462
C           -1.36405574884068        2.56602473907236       -1.25629220542051
H            0.74472505386804        2.42597692828407       -0.97630504357924
C           -2.61148899204857        2.90965355616209       -0.74985862992689
C           -1.27645276470192        1.96760060244445       -2.50573778146407
C           -3.75284397790807        2.68268212991668       -1.49756326665878
H           -2.68536208642711        3.33959998327335        0.23670635878698
C           -2.42048610607493        1.73470248154954       -3.25000974333899
H           -0.30828603327200        1.68489822636203       -2.89173793124638
C           -3.65918911273635        2.10091772286357       -2.75206536849306
H           -4.71855094294228        2.95865199966102       -1.10046850534789
H           -2.34387601223670        1.27028360148098       -4.22278178657527
H           -4.55106832714296        1.92705703863835       -3.33653059176107
C            0.09768402250055        4.34181363646570       -0.22917690323344
C            1.41040078162677        4.57410537754695        0.33473811173752
H            0.00442507121899        4.86143224321967       -1.18657729271406
H           -0.66552078832806        4.71321021496904        0.45773032277647
C            2.50587120633649        4.70270929991704        0.79731451436058
H            3.46221584915503        4.83622586536485        1.20551320820657
Cl           2.26285345951790        0.46214407249482        2.00961035891116
Cl          -0.34841385100523        1.34760078368975        3.36596232566625
O           -0.61955408716250       -0.57087710652167        1.52437998015907
O            0.80144645132534        0.24691508769909       -0.38362646003819
C           -0.41127197083033       -2.18498753376053       -0.19820916913919
C            0.99428583564061       -2.05072949747496       -0.32960386503324
C            2.90488841186847       -0.64683276306602       -0.66139059129560
C           -2.56243170163919       -1.32620743683772        0.48406442802001
C           -3.23513971680286       -2.11411380871301       -0.42757431120453
C           -1.10702926694473       -3.22973047169683       -0.83890829567508
C           -2.45387957625569       -3.17295281760858       -0.99319499675089
C            1.86455508613175       -3.15641621840813       -0.40322177337272
C            3.21311536293434       -2.97565064104781       -0.39828401529363
C            3.80181724424292       -1.68601783603077       -0.47098765322117
H           -0.53826354328417       -4.02284680096169       -1.29569023699939
H           -2.95312055770304       -3.95337114621285       -1.53799345925463
H            1.44646829339580       -4.14793230796861       -0.35038223335735
H            3.85080356510964       -3.84064004674299       -0.35945543271993
C            5.30012233594551       -1.55089069829343       -0.23354057196296
C            3.22659402562231        0.69269366578533       -1.29561854516645
N           -1.19540216278837       -1.31108415748492        0.53553977208344
N            1.57025075958580       -0.82037039268427       -0.47326166065213
C           -3.20796293963515       -0.55756154027237        1.62549447873331
C           -4.66378996515913       -1.94339727478157       -0.93278327094650
C           -5.61540309287638       -2.90587744309542       -0.20956764354545
C           -5.15715079347759       -0.49164184384600       -0.81821094119204
C           -4.67837693665831       -2.28349297159675       -2.43717907466786
H           -6.61318049647198       -2.81200014408940       -0.62997191048644
H           -5.28394930049370       -3.93468694007925       -0.33115819361041
H           -5.66755035819087       -2.68390675852488        0.85116546899069
H           -4.33780337711364        0.20797611926188       -0.96435675967993
H           -5.89834631533841       -0.29816867468519       -1.58937035132685
H           -5.63451296302441       -0.28594272267325        0.13160316266894
H           -4.52415492448541       -3.34024924806021       -2.63112407317677
H           -5.64974527406895       -2.02415013251333       -2.84989081788857
H           -3.91822419777559       -1.71165429481827       -2.96427096716827
F           -3.19313172284837        0.76704035070045        1.47135024487675
F           -2.63484505276021       -0.85567726923592        2.79529860116984
F           -4.48834511223474       -0.90861762117143        1.82149797720171
F            3.39401725405887        1.72963634236975       -0.48332090707129
F            2.26788070720642        1.03230282815037       -2.17730852567882
F            4.32793878347166        0.62103189231795       -2.06395616523868
C            6.09018146080005       -1.81649639999807       -1.52234960396359
C            5.65644368061292       -0.18193287557755        0.36389064058590
C            5.71582282337720       -2.60286153784501        0.81297643838234
H            5.84290108692008       -2.79608563927026       -1.92613791657891
H            5.87939104916727       -1.06887423902000       -2.27940192650972
H            7.15447157078354       -1.79164236802165       -1.30375896529894
H            5.71381572320887        0.60057655986708       -0.38225567222632
H            4.93060127988368        0.10057586307347        1.12319509092515
H            6.63531303329575       -0.23822693865405        0.83326405774475
H            5.71243346740006       -3.61249193187679        0.41236973773910
H            6.73030491287757       -2.39405750930815        1.14157740935476
H            5.06117502600004       -2.55793749167154        1.67941232754291
