75
 energy: -137.335657865684 gnorm: 0.000730437591 xtb: 6.5.1 (b24c23e)
Si           0.21989427159535        0.27327758866728        1.66677999973742
O           -0.60672953293814        1.63285415929670        1.48840662505726
C           -0.67347564342179        2.66660514488000        0.52476585603449
C           -2.04234717814941        2.67700579920812       -0.10366897539342
H            0.08358049883483        2.49555965440692       -0.24156076368232
C           -3.17577225861972        2.63906014514424        0.69888939004824
C           -2.18478443672705        2.73759107204347       -1.48313580114520
C           -4.43502579938986        2.66921762993265        0.12803643565545
H           -3.06221684290659        2.56353821183330        1.76885060332383
C           -3.44622969800907        2.77489679523845       -2.05285827593355
H           -1.30360153300078        2.75641675814367       -2.10852929168716
C           -4.57303632937782        2.74437913361552       -1.24825399400389
H           -5.31138318794690        2.63591797957825        0.75789049122899
H           -3.54984586118443        2.82607968436680       -3.12734455768564
H           -5.55676372738326        2.77347965247158       -1.69368398348456
C           -0.39294811490377        4.00126443602613        1.23870254866284
C            0.94768228922774        4.00950728904175        1.78366605713722
H           -0.51341416795566        4.81819535408901        0.52237095852342
H           -1.11482872015355        4.12601479428827        2.04922871982286
C            2.05703038423166        3.96010965223536        2.22773231964849
H            3.03068688547187        3.92662046043164        2.61463523682107
Cl           2.24260527044174        0.09486315384330        2.02718228593587
Cl          -0.37760348239295       -0.01685829200209        3.62178013832789
O           -0.47474110418926       -1.22927741079061        1.23809971083222
O            0.70340427054267        0.37579501236953       -0.30358920489494
C           -0.12743735134007       -2.13413729699190       -0.91853117936447
C            1.23628413296516       -1.75665764608059       -0.99452306286051
C            2.90267295259900       -0.04497629662745       -0.85243402273516
C           -2.34813921938293       -1.80190171444386       -0.03127249616903
C           -2.93999112661364       -2.33620603029678       -1.15877373555818
C           -0.70391109941248       -3.01023860932412       -1.86053212297392
C           -2.05122469474093       -3.07240318325687       -2.00746929934966
C            2.25162621032139       -2.63559571873308       -1.42007671657688
C            3.55814399501080       -2.26203941429183       -1.35671377540099
C            3.94812372584406       -0.94268927779084       -1.00953549249657
H           -0.05471613985263       -3.54770380972674       -2.53193106826743
H           -2.46829210839573       -3.69976906455946       -2.77382925906257
H            1.98292582869902       -3.64283642141835       -1.69181555707102
H            4.31602467650179       -2.98495491244561       -1.60075336763660
C            5.42468388275752       -0.66882543939071       -0.75509127618207
C            3.01663223669136        1.45762818082251       -1.02862302966799
N           -0.99227395612663       -1.65302673306967        0.05003708999529
N            1.61813505300814       -0.47088679956755       -0.72938380802142
C           -3.04471479225447       -1.50162271478968        1.28546099468938
C           -4.37951870172170       -2.14939633562510       -1.62647531035888
C           -5.28725658872962       -3.29215598913906       -1.15212606893777
C           -4.92287120650220       -0.77674526020942       -1.20078242429847
C           -4.39815245255853       -2.15144599034686       -3.16871155174988
H           -6.27518520091980       -3.17153275079013       -1.58856965733111
H           -4.88296389557072       -4.24988726036734       -1.47228383408757
H           -5.39184253905336       -3.30689127737138       -0.07417780807241
H           -4.19504751672381        0.00251982135305       -1.41949160694907
H           -5.82871109915688       -0.55918798100287       -1.76128989508106
H           -5.18334049393942       -0.72119036146390       -0.15231253691775
H           -4.25846357265065       -3.14543271765919       -3.58299220500206
H           -5.36707712233266       -1.79741845199128       -3.51071912366951
H           -3.63473158548419       -1.48816848436585       -3.56756672856392
F           -3.10575974364125       -0.20627019612560        1.59022728432662
F           -2.44957209911569       -2.14945939438812        2.29288775594165
F           -4.30589675716799       -1.95750135425854        1.33364713630438
F            3.18539359627863        2.19222483035499        0.06359386961166
F            1.94643598636695        1.95163835209984       -1.67285435720068
F            4.03487245716166        1.75923618689613       -1.85917172421491
C            6.17518603578306       -0.45216650008512       -2.07617643820833
C            5.63901559042347        0.51569950712072        0.19653130346180
C            6.01956833791579       -1.90356249528023       -0.04968569039237
H            6.04482679604354       -1.30719078999820       -2.73607661557829
H            5.82112215541647        0.43601456905518       -2.58925632280765
H            7.23595359898642       -0.33123471733573       -1.87293740406049
H            5.55689454120253        1.47361749800108       -0.30193489375040
H            4.92877362190811        0.47510743899903        1.01925744205760
H            6.64261929474732        0.46523543864037        0.61143519149257
H            6.12505586286114       -2.75473453533281       -0.71584888178941
H            7.01336820584183       -1.65963511548651        0.31585101680359
H            5.40430003636073       -2.18821764027058        0.79990873484779
