81
 energy: -143.673238193369 gnorm: 0.000925857383 xtb: 6.5.1 (b24c23e)
Si           0.52154316914740        0.55432094545138        1.28355668788394
O            0.91729558883943        1.82433305359842        0.37875517308059
C            0.92294638717617        3.20728703290747        0.62671827799233
C            1.95489446384627        3.86545653921834       -0.25462627896060
H            1.15781402089003        3.38785640597768        1.68383900382536
C            2.39539075055115        3.24951588790314       -1.41696279057626
C            2.44817095259893        5.11925229058638        0.08392063143621
C            3.32191193949429        3.88036750650485       -2.22856815839042
H            2.01341707874245        2.27306659819893       -1.66818099615234
C            3.36863480956326        5.75044555281452       -0.73261313351097
H            2.11281255791676        5.59811901496390        0.99337695805246
C            3.80769819187229        5.13165007792462       -1.89132103585324
H            3.66560191293367        3.39197796684765       -3.12874364238272
H            3.74814594504207        6.72510601900029       -0.46201904758514
H            4.52987316785954        5.62372399256443       -2.52646563062618
C           -0.48087866925168        3.78551526057111        0.34622221210195
C           -0.93723621222701        3.38720580487177       -0.96611910951452
H           -1.17042117357015        3.40903092578114        1.10476465783832
H           -0.44025100231852        4.87537400178483        0.41211253654878
C           -1.28930881238984        3.00423543877823       -2.04404866267501
H           -1.59225004015351        2.70811364845422       -3.00389330830900
Cl           1.91544875322417       -0.67292227422638        2.22702024566228
Cl           0.02410474945904        1.56756556322325        3.09118427086328
O           -1.02855071585799       -0.16479924250023        1.40290460847681
O            0.81078509184438       -0.33535786799337       -0.32677315073735
C           -1.46786788682455       -1.66783119194860       -0.39999144841339
C           -0.22236671203672       -2.38038028031591       -0.14174113923782
C            2.16897124634230       -2.21116514806398       -0.23742505855108
C           -3.03184345007941        0.06553476119555        0.22934045445682
C           -3.72074770794713       -0.04493935652549       -0.96343010730339
C           -2.26189668775571       -1.95179056872571       -1.50003814858329
C           -3.31066595587962       -1.09009378552405       -1.81219422546528
C           -0.11204754161266       -3.73082344463214        0.16678122916224
C            1.15024631704148       -4.24190508334049        0.41997862485328
C            2.33586906040433       -3.50291866977949        0.23430309377837
H           -3.82208816515848       -1.25345132777179       -2.74229786207970
H            1.21073169874488       -5.25611995919151        0.77075504655430
C            3.66128091589001       -4.13632932903600        0.64625567649427
C            3.19798946539399       -1.31942482710119       -0.90541249468678
N           -1.84559956750906       -0.63584596330104        0.41488546018562
N            0.92025797136093       -1.65928179115651       -0.28695282110325
C           -3.48522725221256        0.74416119847235        1.50015507563233
C           -4.83686879178767        0.87863551436585       -1.44788981631305
C           -6.20680875138850        0.29365858063267       -1.07665736093843
C           -4.67832906956641        2.30571499190413       -0.90402894002296
C           -4.77194699353624        0.98936753237232       -2.98348915577416
H           -6.99014813888163        0.91730841787291       -1.49961270506534
H           -6.31012405149168       -0.71243036780486       -1.47801849007694
H           -6.34741201562332        0.25190788031762       -0.00250199934119
H           -3.64630515162988        2.63865158095119       -0.99919315302483
H           -5.30575632880271        2.98161753208308       -1.48007549388300
H           -4.98806204849115        2.40193497306409        0.12804771194338
H           -5.13803648838552        0.09343813271754       -3.47741513412015
H           -5.40442227757992        1.81178154912779       -3.30703273091439
H           -3.75701302077658        1.19102184048402       -3.31442840854280
F           -3.03212244937141        1.98997187067034        1.67219371443127
F           -3.14453977948814        0.03632435310388        2.58176170422831
F           -4.82805163617184        0.81684580634785        1.58500211445250
F            2.64343877467223       -0.62727679938752       -1.91150498011972
F            4.14845521678347       -2.04963163801221       -1.52424249193384
F            3.83277006281730       -0.44738174286553       -0.13068999116925
C            4.24662313197914       -4.94801280459416       -0.51783378261458
C            4.65826246570420       -3.08029682449958        1.14437211084770
C            3.41756919306761       -5.09514741046901        1.82613993230823
H            3.53980358755299       -5.70812782239498       -0.84463065041952
H            4.48785726573453       -4.31453042439070       -1.36444518986314
H            5.15757592387697       -5.44136084939423       -0.18952409750925
H            5.15988840389600       -2.56270093541896        0.33690148753691
H            4.15399135703153       -2.35361098176946        1.77682951960124
H            5.43291570730552       -3.56452538784922        1.73335681890823
H            2.91570887414171       -6.00957159443572        1.52167722204283
H            4.37562205508304       -5.38535968133348        2.24873946403890
H            2.83864507073104       -4.60364726629104        2.60346561051030
C           -1.95548060965163       -3.07745914717091       -2.43856080353725
H           -2.08590065038003       -2.74478252995085       -3.46557552191739
H           -0.94132410562678       -3.44384813319824       -2.31687351603412
H           -2.64817074493191       -3.90085825378035       -2.26811986573182
C           -1.31810590665097       -4.59333081155648        0.36541638429505
H           -1.37227497964809       -5.35140441162688       -0.41441989230399
H           -1.24510323195372       -5.10783725294015        1.32112651650015
H           -2.23113552194950       -4.00664386134896        0.35407718535545
