81
 energy: -143.675654948263 gnorm: 0.000894433220 xtb: 6.5.1 (b24c23e)
Si          -0.21744389513670        1.05989495847214        0.97143567965662
O            0.87732672914537        1.61077214235388       -0.08125149316690
C            1.75785791631826        2.70722327774018       -0.04076933852942
C            2.96334680319297        2.37458366428916       -0.88183140312809
H            2.04968379751688        2.90120626988436        0.99870536287191
C            2.80055241897730        1.66655948006862       -2.06666843552877
C            4.23146174785736        2.79817741262197       -0.50897066935929
C            3.89276786117783        1.39106653464319       -2.87014793310455
H            1.81239194458643        1.32853222717845       -2.34096818827771
C            5.32233956698770        2.52341232326054       -1.31559778169489
H            4.36114422961931        3.33960034416959        0.41625742463843
C            5.15515610200415        1.82235771954755       -2.49803726455681
H            3.75883409107622        0.84453724487154       -3.79285633090744
H            6.30615707216393        2.85584521583868       -1.01916295503471
H            6.00714648741804        1.61073029868879       -3.12756507230782
C            1.06103260425481        3.95511736154674       -0.61980175948482
C           -0.07683727600892        4.34223416545446        0.18475889862201
H            1.78456487953882        4.77327999711364       -0.66428721013513
H            0.72188241026500        3.72113641946149       -1.63266388155921
C           -1.02867525315033        4.62386940203008        0.85248889695811
H           -1.85202824055615        4.88128186517840        1.44864071075145
Cl           0.55570157821564        1.92948819580731        2.74504142510961
Cl          -2.17822801404353        1.48064282237748        1.53260105989488
O           -0.90024384758432        0.28982297080653       -0.62469894086843
O            0.11420451977127       -0.51894164378559        1.55910176167625
C           -1.61142111674966       -1.83024252444254       -0.07454404389751
C           -0.19828210686637       -2.17917238066971       -0.07332530419822
C            2.01838763443595       -1.62436138262723        0.72540747300450
C           -3.18385745082843       -0.12334858684726       -0.69127404667262
C           -4.25093332424269       -0.84944097697230       -0.18847194910093
C           -2.66290317855909       -2.66563054444247        0.28276383277363
C           -3.94307194278081       -2.14028788602307        0.28927564086208
C            0.36085401221165       -3.09076181279836       -0.95429740456480
C            1.74391284723557       -3.11496353608551       -1.09402999101640
C            2.61182787320810       -2.33880838072646       -0.29711281491903
H           -4.73172611325978       -2.76212285833496        0.67249987513815
H            2.15240458266950       -3.74058585134685       -1.86562065293451
C            4.09367643674564       -2.33029617662411       -0.66838372120682
C            2.69638585238857       -1.08216197935614        1.96186552004940
N           -1.90581593382107       -0.57048813348900       -0.50452670131364
N            0.64027988278260       -1.49047623696189        0.76395198203010
C           -3.24316450403691        1.04930954230716       -1.65192895710937
C           -5.68152967755255       -0.34277137659991       -0.03517459594506
C           -5.73216121333081        1.18447020301160        0.10916065887977
C           -6.53952224137038       -0.81405729508215       -1.21767194296125
C           -6.28066306561020       -0.92314053472932        1.25948784478859
H           -6.68003565362312        1.47384872168901        0.55554281456446
H           -4.93067003638845        1.53078889480570        0.75730053043604
H           -5.66799113647784        1.69607743617750       -0.84287645425683
H           -6.18749280281311       -0.39579570886806       -2.15464997774109
H           -6.51983435068363       -1.89928582793443       -1.29454712216409
H           -7.56776241831777       -0.49664171579919       -1.06579685505474
H           -5.60455423064175       -0.76557327120435        2.09555759807647
H           -7.21527854049128       -0.41311280762957        1.47661703499934
H           -6.51007209738065       -1.98162040198578        1.17426225208244
F           -2.23578217286866        0.99642696284943       -2.53567932952450
F           -3.23969672648613        2.27237600229251       -1.13406675485840
F           -4.34100324226863        0.96795658836828       -2.43413353046483
F            1.91712925186275       -1.16661651492905        3.04255876395631
F            3.12591845464939        0.17928884276200        1.86928838844058
F            3.76960607601102       -1.82962168023789        2.29764233620195
C            4.80400111091858       -1.03683654264519       -0.24629870344392
C            4.78917487938833       -3.55572793758297       -0.05995526577916
C            4.21965877745544       -2.40797320967858       -2.20259346510105
H            4.17968459301416       -0.17074990480657       -0.44783360996010
H            5.09115696764570       -1.03432084104821        0.79717729613129
H            5.72043761882406       -0.92374230654290       -0.82012272343823
H            4.76922109266854       -3.52133113702935        1.02438891005177
H            4.30242959727752       -4.47252887062635       -0.38572225441251
H            5.82642895216638       -3.57958630601687       -0.38368603540183
H            3.57665388154985       -1.67029167529814       -2.67541070538363
H            5.24669722272719       -2.19392819587012       -2.48583334055403
H            3.98235693718135       -3.39408636141286       -2.59103630511671
C           -2.42174766448703       -4.05499847796739        0.78248374139128
H           -2.80658110334568       -4.78438269819720        0.07129055003248
H           -1.36400940568005       -4.23812141498304        0.94254726816712
H           -2.94787431489936       -4.20139503420210        1.72326902306690
C           -0.47960583536113       -3.94460991932245       -1.85175795781203
H           -0.56310768623395       -4.94812182066876       -1.43575982239168
H           -1.47783648154440       -3.53593377176279       -1.97418749343477
H           -0.01144799962624       -4.02907605547172       -2.82923706553064
