81
 energy: -143.697272176878 gnorm: 0.000769806438 xtb: 6.5.1 (b24c23e)
Si          -0.07704288307450        0.88333737344920        1.47733051629299
O            0.69026688659904        1.33182400514215        0.15082189711235
C            0.49941702833837        2.28649502126530       -0.88553022571474
C            1.62730606404607        2.10470653805782       -1.86895130901244
H           -0.45230000989109        2.05278865724058       -1.37542356567790
C            2.93802253825307        2.38440729983073       -1.50359818875467
C            1.35916704776737        1.65111744265743       -3.15274961854106
C            3.96259643381247        2.24452148529280       -2.42314711271212
H            3.16107669364552        2.71061305029868       -0.49848604052266
C            2.38687457376871        1.49861516800758       -4.06729973000263
H            0.34195342513259        1.41448248905841       -3.42286532093306
C            3.68814107454163        1.80586402810014       -3.70856229496813
H            4.97688876492164        2.48437564888140       -2.13772481230445
H            2.17054596587101        1.14525571122222       -5.06461345803091
H            4.48979096422750        1.69803839594778       -4.42455589923330
C            0.46573588287925        3.71862254094798       -0.33311124921127
C           -0.76733297294088        3.99508607664436        0.37136311652183
H            0.56621229890707        4.41156742934804       -1.17253852596573
H            1.30846109543883        3.86429491829736        0.34756490857576
C           -1.79205529492287        4.20044077266465        0.95387492193837
H           -2.69025551694045        4.38802223472663        1.46187472701263
Cl           0.55631964321647        1.87795485459519        3.09416329600011
Cl          -2.08926233662420        0.95472980080721        1.39211350992732
O           -1.21583416826787        0.00205066012662       -1.91211527693633
O            0.31320920434383       -0.68793652052264        1.70319976764035
C           -1.15203774626225       -1.71004389086859       -0.42058488149281
C            0.30504081946082       -1.68300990680751       -0.47668656207198
C            2.31373413387399       -1.65635508959194        0.86505880145804
C           -3.20757366898405       -0.79917353659448       -1.19694315887941
C           -3.94126188471787       -1.43316258351678       -0.19479127491502
C           -1.85742609118681       -2.51757776391669        0.47203590166369
C           -3.22064042601963       -2.33298852229784        0.59441229500804
C            1.07773255306204       -1.74758098306869       -1.61884341253588
C            2.46415477586715       -1.62485891529908       -1.49397078665799
C            3.12326934904257       -1.57939163740738       -0.25725871271105
H           -3.73236806128260       -2.91830067993542        1.33632670835737
H            3.03225294824059       -1.59928399835242       -2.40439831688146
C            4.64914819465079       -1.50657818769802       -0.24119627262843
C            2.67629454974638       -1.80628289725917        2.31812632699084
N           -1.83915823302931       -0.83251315176229       -1.20022106028148
N            0.92755980764738       -1.60546014766283        0.75183816994388
C           -3.70199570453265        0.00238438902136       -2.38259321137290
C           -5.40185349982789       -1.15697909302251        0.15509065921623
C           -5.69531008756480        0.34792628959710        0.05315695073415
C           -6.34947432418014       -1.99003774440258       -0.71890303893256
C           -5.67617685724572       -1.54098524628049        1.62012328695362
H           -6.64037464493499        0.56600347647557        0.54391923570566
H           -4.91050302359215        0.90985434224044        0.55451191465806
H           -5.78158005122612        0.70022525622929       -0.96538828463048
H           -6.12556552408965       -3.04897212340020       -0.60584152271444
H           -7.37461329690438       -1.81886915773582       -0.40056959285134
H           -6.27499183542923       -1.73440983186882       -1.76857083572169
H           -4.94054877481449       -1.09146670563867        2.28196290139779
H           -6.65808136578768       -1.16910680685354        1.90159971402407
H           -5.69029158374452       -2.61774927072171        1.76721628154419
F           -3.02485699897105       -0.32355909430063       -3.49779578299158
F           -3.60326797534047        1.32835304279465       -2.23176813528806
F           -4.97776675318856       -0.24265067369347       -2.72050511234640
F            1.68048186180787       -2.38611154405683        3.00851173293223
F            2.93505707446088       -0.64122815436896        2.94084445493794
F            3.73939219496612       -2.59369928756117        2.55926970517319
C            5.14411623161770       -0.55268063864271        0.85483721438595
C            5.23200053912276       -2.91635872844164       -0.06130083451760
C            5.18580441476203       -0.96383952173896       -1.57575582845307
H            4.56307444660829        0.36671454053312        0.84360875368918
H            5.09235297716144       -0.98771994697006        1.84435185783575
H            6.18615872583385       -0.29878999686465        0.67572961940565
H            4.96165562049267       -3.35535805982975        0.89124705781373
H            4.87526374761970       -3.57048818215720       -0.85435044445684
H            6.31668133552844       -2.86643488356892       -0.11679944001888
H            4.68954992831008       -0.03682817938596       -1.84877534837125
H            6.25012156866281       -0.76541092625511       -1.47317486410997
H            5.07212150929665       -1.68438332656879       -2.38143778180555
C           -1.15385374773656       -3.53401142947911        1.30857712622468
H           -0.70384549785692       -3.05355436287638        2.17622685442843
H           -1.85545028737545       -4.28529374077731        1.66057219251692
H           -0.35770348920310       -4.01732621050206        0.74740905692309
C            0.47103317304114       -1.98597644783297       -2.95987248372869
H           -0.25319213145198       -2.79734429716013       -2.91680556431841
H           -0.05835172766885       -1.08901853067477       -3.28320099821312
H            1.23701641021871       -2.22636538330508       -3.69033326251938
