81
 energy: -143.678088295376 gnorm: 0.000964667836 xtb: 6.5.1 (b24c23e)
Si          -0.43443582988566       -0.58059510233412        0.61254836476460
O           -1.12262991870911       -1.83356079404018        1.35595284007338
C           -1.13236775179890       -3.21408492188732        1.06749852458490
C           -2.00663206388176       -3.50488815984875       -0.12474242754782
H           -0.10587153730358       -3.54763211541670        0.87370585961288
C           -3.14524808187837       -2.74430327686190       -0.35252949635181
C           -1.68921352321441       -4.53865435458118       -0.99513795402401
C           -3.95317102485893       -3.00939499917254       -1.44360723897749
H           -3.38632516717809       -1.93348758190585        0.31836356231991
C           -2.50281028613232       -4.80700999804260       -2.08117161540298
H           -0.79651475656285       -5.12345814196518       -0.82514364926068
C           -3.63525987313414       -4.04266845912391       -2.30800105398327
H           -4.83167493223131       -2.40553279466353       -1.61648496438293
H           -2.24750417636245       -5.61017924532396       -2.75720844022927
H           -4.26578468940694       -4.24985744270208       -3.16051286742277
C           -1.67112817655929       -3.93158257371543        2.31802216292136
C           -0.73566224355722       -3.81365775418577        3.41562748111132
H           -1.83485724740544       -4.98546237971701        2.07883003492088
H           -2.62412628076220       -3.47460604193799        2.59553733148734
C            0.06485941232152       -3.69375647790175        4.29609326045182
H            0.75780078640466       -3.58976768955056        5.07621185062083
Cl           0.64229404937469       -1.78809995193684       -0.86899385595931
Cl          -1.54786930059374        0.65848930394664        1.96565620760732
O           -0.79036483288331        0.41492310741679       -0.76445339998736
O            0.98194477802486        0.20805148152828        1.19002744715105
C            0.40971072094023        2.36414465327418       -0.34288788851358
C            1.63369960502663        1.59229023806611       -0.56584306579611
C            3.01520635940552       -0.25810521943879        0.14068208317081
C           -2.00298120546289        2.37670484159232       -0.39506394103103
C           -2.06210831336726        3.59951439152818        0.24765600016703
C            0.39387981713806        3.67653887134666        0.09905904618309
C           -0.82717706033294        4.24519561561806        0.44290647696531
C            2.50889341887213        1.82770059001043       -1.61384345027599
C            3.51890183741210        0.90282732986052       -1.85367515612928
C            3.77253396282033       -0.19898966701866       -1.01503881586220
H           -0.80460948593291        5.21529532982708        0.90439824679149
H            4.10447814673744        1.03410915095698       -2.74507635671445
C            4.76491532964253       -1.26071644125350       -1.47978405046208
C            3.28190672346684       -1.04548018716731        1.40441020320790
N           -0.78929882006541        1.76102698098697       -0.59659663271926
N            1.93348153556055        0.57795493815064        0.29790106979287
C           -3.11339272778524        1.61885807277331       -1.08689737366342
C           -3.32254806823229        4.23281104801690        0.82747466948512
C           -3.96632281728562        5.18279864030555       -0.19186800682839
C           -4.30962681602542        3.15414122139206        1.29667744867472
C           -2.95056206626185        5.05204553271979        2.07597613532029
H           -4.82751274791595        5.66591307298659        0.26212474486481
H           -3.25760618805015        5.95147287475557       -0.49360420330808
H           -4.29993113071182        4.65522693402367       -1.07841625169825
H           -3.77211673148973        2.35119854691170        1.79631777292058
H           -5.01181689280117        3.58864498666669        2.00340064040158
H           -4.89740977701430        2.74251307643502        0.48625560141301
H           -2.42339866717013        5.96965652727579        1.82923200542578
H           -3.86233750699375        5.33938037750737        2.59279089239784
H           -2.34800421099338        4.45461490963136        2.75455107852031
F           -3.70515260093935        0.65868342778459       -0.37859124004407
F           -2.66364740753811        1.04836570860001       -2.21688157015357
F           -4.09346898379693        2.43319506153962       -1.52005049881507
F            2.62893124566471       -2.20008332229920        1.52704347320574
F            2.99058377916124       -0.30977517422411        2.48926254668607
F            4.58838496839794       -1.32652546044280        1.56365182785220
C            6.18338991957968       -0.92137847014617       -1.00185915525757
C            4.33124287356354       -2.65777925583062       -1.01138698395594
C            4.77930594326669       -1.30326647331111       -3.01871886100939
H            6.47928794798762        0.06178996583226       -1.36246572284592
H            6.25633860918906       -0.92767475681981        0.07982254414471
H            6.87953479589466       -1.65760820469929       -1.39507435024166
H            4.60008517810418       -2.85861899615011        0.01771075970407
H            3.25623228099264       -2.77499353754130       -1.12872398294392
H            4.82487791315709       -3.41295488414565       -1.61767122298563
H            5.28090243913813       -0.44235546020153       -3.45255871136509
H            5.32614630606384       -2.18513394587121       -3.34171617948783
H            3.76697570192536       -1.36994816046232       -3.40821049871470
C            2.31326971242294        2.96420942923721       -2.56740871101160
H            2.40049544613729        2.60725936019525       -3.59089305707577
H            1.34159881512220        3.43057663579636       -2.44106923723715
H            3.08750411762685        3.71444519078215       -2.41041235097056
C            1.65575531087833        4.44231994114403        0.34548330732159
H            2.53057636020230        3.80291717462393        0.28704443772114
H            1.75297714545551        5.24256174581211       -0.38720400943595
H            1.62155562741138        4.89865758696195        1.33197456012085
