81
 energy: -143.673598897734 gnorm: 0.000778466937 xtb: 6.5.1 (b24c23e)
Si          -0.16323704677180        0.93355268273066        0.62773965730938
O            0.51704458046468        1.77567692390614       -0.57485379508559
C            0.71867928916089        3.17496904536624       -0.64525759353140
C           -0.54508544659320        3.92102304202737       -0.30340359534122
H            1.51412990496610        3.44611705346029        0.06015294854296
C           -1.75275249630231        3.49394816251126       -0.83861546970650
C           -0.52504100648410        5.01599069400201        0.54775004879547
C           -2.93125707811063        4.13765551805119       -0.51018711092503
H           -1.76750266720666        2.63694144811129       -1.49424011630457
C           -1.70313139922429        5.66828899572403        0.86560408035727
H            0.41096928532451        5.34336677574539        0.97515595584536
C           -2.90726961081519        5.22785507292158        0.34246928265136
H           -3.86547745498512        3.77894708932333       -0.91493411352704
H           -1.68215585279147        6.51479785979561        1.53602351080217
H           -3.82698104319181        5.72989034267639        0.60494370897407
C            1.14013297014322        3.51215388263403       -2.08560421816868
C            2.46359584073075        3.03372058759900       -2.41660855278218
H            1.11174792958992        4.59848216147089       -2.20883802200938
H            0.41454708617130        3.05903820113248       -2.76543909623064
C            3.56064057440041        2.65574738787833       -2.70986559788060
H            4.52253784978989        2.33720412033821       -2.98017420673908
Cl          -2.13119965079273        0.77424076878546        1.31231226029253
Cl           0.37079493481819        2.19756304538253        2.25638715799602
O           -0.62239313773092       -0.22019702475117       -0.79371044683725
O            0.75882171885439       -0.32350831195943        1.33433209975604
C           -0.52155988672484       -2.36144274391849        0.05082470006157
C            0.92601599301094       -2.21484788353184       -0.06056085547380
C            2.88099518198280       -0.92055852803032        0.52538067210428
C           -2.62264522268977       -1.38750809209839       -0.57140893967871
C           -3.33286224250413       -2.34452414501864        0.13691219806114
C           -1.18649035277469       -3.44089510417628        0.61279517753033
C           -2.56844550443413       -3.37462076450236        0.71564232036347
C            1.70518154283862       -2.99481854996614       -0.89543931914395
C            3.01990804473082       -2.59965352519022       -1.13764051617925
C            3.63278882678455       -1.52655613530574       -0.46489991810075
H           -3.06315450859320       -4.16011046342239        1.25777154580403
H            3.56766438693561       -3.14210114635922       -1.88555317419464
C            5.03191452818295       -1.10936606548216       -0.91348655792527
C            3.38558941959252       -0.08046527125393        1.67474203807581
N           -1.25609314349693       -1.34846702301106       -0.48261641359320
N            1.52627065126034       -1.19829695011953        0.62725168493380
C           -3.15729582544805       -0.48077217372678       -1.66014649229254
C           -4.83493917341604       -2.32400857743596        0.40224291840914
C           -5.41410763088534       -0.90514755662446        0.33277012506586
C           -5.55656126286407       -3.25709091541694       -0.57973224551926
C           -5.08866487904544       -2.82853382625601        1.83513794962037
H           -6.37503130821629       -0.88338619491231        0.84058546749900
H           -4.75155540621479       -0.19941573550302        0.82807990943235
H           -5.59312231341627       -0.57778648215915       -0.68369538756463
H           -5.16166110888599       -4.26833473662748       -0.50789550736443
H           -6.61637914216044       -3.28161365951243       -0.34055652625832
H           -5.44445666668969       -2.91498807604084       -1.60340778388075
H           -4.44617969486073       -2.30738627269659        2.53976407117430
H           -6.12206171924640       -2.62776244839918        2.10414985374934
H           -4.93749494444189       -3.89973711349553        1.93301352148901
F           -2.24630219989343       -0.29702967958130       -2.62641717067438
F           -3.58825965426206        0.72729021469938       -1.31000692407876
F           -4.18236040416456       -1.07649673693834       -2.30812119727250
F            2.69463769222929       -0.30351851391093        2.79621568356937
F            3.39230539228739        1.23669448680353        1.45681161544216
F            4.64671047711031       -0.42018049825266        2.01712201789908
C            5.31341869305301        0.37694349990113       -0.65278196576222
C            6.08271223662025       -1.99168047585519       -0.22581542769627
C            5.14782872106343       -1.31147889886583       -2.43711131093107
H            4.44597521923456        0.98307123159525       -0.90507688367017
H            5.60096084265590        0.57806750434589        0.37109516885715
H            6.14653058803635        0.69850590555437       -1.27369073183675
H            6.07427763036758       -1.84906208055966        0.84971636429524
H            5.89538513226027       -3.04237920235449       -0.43674203611776
H            7.07087835669566       -1.73426504384755       -0.59825147356859
H            4.30376611710589       -0.85657903675235       -2.94976563612120
H            6.05991728764963       -0.83717656387805       -2.79026311931909
H            5.21153937014934       -2.35969118471171       -2.71396575777102
C           -0.44611469174215       -4.59164956206828        1.21711137930986
H           -0.62186173829383       -5.49752572532766        0.63857017894998
H            0.62116417621325       -4.39820491841329        1.25733029282808
H           -0.80765532709615       -4.76951906803869        2.22769111503958
C            1.14679888189174       -4.16546309364888       -1.64236230495414
H            1.50401112474562       -4.15279853261183       -2.66919532988602
H            1.48774360483477       -5.09334477231541       -1.18450938187967
H            0.06170175952652       -4.15815061963930       -1.64942645710933
