81
 energy: -143.696685310616 gnorm: 0.000480208557 xtb: 6.5.1 (b24c23e)
Si           0.07858542839333        0.83011793690797        1.20200900468822
O            0.58309756364417        1.32912081370623       -0.23103850244377
C           -0.01468372449915        2.11132957476336       -1.26949701428963
C           -1.10098902739705        2.99597113619996       -0.72127666442264
H           -0.44198134265003        1.38823821201230       -1.97433980511306
C           -0.80028552209886        4.01055523407151        0.17996167789349
C           -2.42444436186832        2.76591502943850       -1.07221458352595
C           -1.81186289853223        4.77831880181057        0.72776472006882
H            0.22442009406909        4.19244851357295        0.46712744521451
C           -3.43435660523686        3.53717733676484       -0.52485885009527
H           -2.66210279153113        1.97556953181266       -1.76705865287155
C           -3.13039679965795        4.54193439562581        0.37764974454126
H           -1.56864405172859        5.55905813271592        1.43269866788174
H           -4.46052388432335        3.34500306694237       -0.79921771572602
H           -3.91952792108738        5.13866340037014        0.81043463813503
C            1.09813083848648        2.91582951665609       -1.95877908742303
C            1.80073069247503        2.11612208725564       -2.93843058535028
H            0.64942214602431        3.77763098929544       -2.46026831505170
H            1.80080358111362        3.27569799579492       -1.20289177830297
C            2.35251805649981        1.44576519116178       -3.76146781738893
H            2.83646467832339        0.87596322921772       -4.49678250176468
Cl          -1.89383852050524        0.39874639483533        1.28334162791972
Cl           0.52687293059828        2.10124736347040        2.68488947072697
O           -0.95155233925374       -0.70551240201720       -2.03099224902910
O            0.88448509213015       -0.54760569797617        1.53253051613371
C           -0.34200324033585       -2.13880026551189       -0.37160813408458
C            1.04728096474229       -1.73240306811453       -0.54506029259783
C            3.02757334935258       -0.99288703453090        0.62079242516240
C           -2.60084124325611       -1.92573282077430       -1.07893679628438
C           -3.08627998319745       -2.57489516414618        0.05514831142547
C           -0.75763654270250       -2.98350577936749        0.65977104158256
C           -2.11195897982530       -3.13879430327316        0.88196360232528
C            1.74913296236080       -1.70702846825766       -1.73466944766761
C            3.04280732156712       -1.17980104092687       -1.73244655423969
C            3.71206845050802       -0.78574298439268       -0.56616372910241
H           -2.40997755035392       -3.72754273017979        1.73048747183773
H            3.54054228404982       -1.10670774878395       -2.68022071186654
C            5.12241853084607       -0.21349542451565       -0.68864124592851
C            3.51502845839735       -0.91853598561986        2.04164141668989
N           -1.27940463223100       -1.58260207374394       -1.18630288475262
N            1.68728653658779       -1.36373921968192        0.61850177979046
C           -3.35530107106156       -1.51580425480432       -2.32396200513888
C           -4.54669287648466       -2.63025487992989        0.49639978005275
C           -5.26636733918417       -1.31796732401255        0.14972832347735
C           -5.26097168922825       -3.84676019836463       -0.10782327004499
C           -4.61764184098719       -2.76072554666962        2.02875152231346
H           -6.20216044994848       -1.26366088090362        0.70041985682203
H           -4.65061326035940       -0.46920937689295        0.43987743300027
H           -5.51579522504003       -1.23210228563515       -0.89935867221646
H           -4.73785509413100       -4.76117718704387        0.16462925100934
H           -6.27396483305266       -3.89939683879513        0.28290882513144
H           -5.31686597992253       -3.79240944188948       -1.18860503380112
H           -3.98988767834846       -2.01353880347700        2.50745379483485
H           -5.64373526971336       -2.59918360219128        2.34904264247644
H           -4.33009593413249       -3.75092976958357        2.37150869228239
F           -2.63753551716765       -1.77409904390589       -3.42925188606141
F           -3.70249277434652       -0.22360854287633       -2.37418419392675
F           -4.48463015502821       -2.21638134754915       -2.52054628680465
F            2.77175578434666       -1.69399984813913        2.84836827016555
F            3.48302125562719        0.31414365037163        2.58085269371082
F            4.77111399407827       -1.36761058538101        2.21925687895579
C            5.37261256610951        0.89333363975440        0.34457411507517
C            6.14988494199823       -1.34483522021666       -0.53970458643548
C            5.32204460280170        0.42399432406018       -2.07447924987187
H            4.52150661257114        1.56884179112681        0.39110128773078
H            5.56789453568051        0.50416323711059        1.33549157826398
H            6.24772665216126        1.47067010889166        0.05578605156237
H            6.10955652312404       -1.79954448181356        0.44369384514482
H            5.96807141638616       -2.11791693654162       -1.28345695621180
H            7.15024331929100       -0.94693031678697       -0.69137465756410
H            4.50758287975273        1.10460364228606       -2.31133782726993
H            6.25239714471536        0.98688512573227       -2.07541131717434
H            5.40448502962650       -0.32540890606567       -2.85709732192206
C            1.16849144055819       -2.24141454143948       -2.99902796293458
H            1.94861440185985       -2.42695334816133       -3.73147678816115
H            0.61921141108730       -3.16335769488726       -2.81773788738589
H            0.46372766430305       -1.51325540616431       -3.40527466207325
C            0.23388507994232       -3.67465297134713        1.53556986872393
H           -0.22515961648473       -4.53077914803215        2.02229288291506
H            1.09701661629399       -4.00445080856381        0.96241823018038
H            0.58889673437194       -2.99315765384355        2.30714709846041
