81
 energy: -143.675683165676 gnorm: 0.000704318037 xtb: 6.5.1 (b24c23e)
Si          -0.22024038129506        0.91506738064968        1.03126666893526
O            0.91189718299473        1.57161317533606        0.08030250450979
C            1.73486821971007        2.70028037296559        0.24868039297225
C            3.00169990140393        2.48799499353710       -0.53913074980809
H            1.95764656521393        2.83051267776853        1.31487676707841
C            2.93909824780089        1.89936761863585       -1.79664089454996
C            4.22759026725532        2.91085180629654       -0.04431605485956
C            4.08780308180156        1.74456454999151       -2.55217398626429
H            1.98335942209239        1.55874739368724       -2.16654288696370
C            5.37555806376217        2.75546689221329       -0.80218659413525
H            4.28019184856729        3.35889460347815        0.93680233173920
C            5.30764478086151        2.17608975430570       -2.05797955970282
H            4.03199103395295        1.29331368058059       -3.53262085407163
H            6.32591409220431        3.08711304762234       -0.41074430439036
H            6.20357942305461        2.05931269439141       -2.65011407186285
C            1.01235599879042        3.95498029672825       -0.28234867448017
C           -0.19997379672256        4.21823074637671        0.46096045850623
H            1.69079562620969        4.80880843413815       -0.20839712825316
H            0.75914239829732        3.78851789452924       -1.33293203074135
C           -1.21298717236155        4.39733729389174        1.07179107964889
H           -2.09970608404248        4.55684863760897        1.60818357097366
Cl           0.49950128389382        1.60040616057486        2.90597100547657
Cl          -2.20051193992917        1.21657722616071        1.61245372932644
O           -0.86982446968522        0.34685374545419       -0.66159149533311
O            0.10644578527873       -0.71901236472123        1.43484586669476
C           -1.53676618763465       -1.84059275919361       -0.40864102401169
C           -0.11327559893920       -2.15120588295948       -0.41496888952269
C            2.05970896715012       -1.69276453840644        0.54879083754826
C           -3.14349900616263       -0.10156181791094       -0.80309208281539
C           -4.19559423097794       -0.91385640291418       -0.41211341800550
C           -2.56993776317855       -2.74417012371497       -0.19301720604894
C           -3.86255017341043       -2.25337970179828       -0.12539691155014
C            0.49668635575754       -2.90965589106218       -1.39934554963564
C            1.88539122114409       -2.89495247610109       -1.48419179111769
C            2.70648767609008       -2.24381320892741       -0.54042651087554
H           -4.64057297196690       -2.94068579043332        0.15404258371913
H            2.33459615034476       -3.38890289518256       -2.32546416877634
C            4.20460149289259       -2.17797159850152       -0.83273897326642
C            2.67303071842125       -1.32697884969575        1.87979591924115
N           -1.85673320477986       -0.54257643211122       -0.66903228535652
N            0.67804745656392       -1.57915472506008        0.54660181296140
C           -3.22954193199391        1.18535506547047       -1.60128752675971
C           -5.63524703386550       -0.46339459428187       -0.18689669222096
C           -5.72269839764780        1.03145043635954        0.14758056365533
C           -6.49380055174065       -0.80294682106023       -1.41287896984982
C           -6.20261366095963       -1.21592113521851        1.03142425856777
H           -6.67986145288221        1.23958028361485        0.61900311174637
H           -4.93289347375594        1.31125618581342        0.84065408515753
H           -5.66653111919561        1.66019284870282       -0.73204563567437
H           -6.16257436161935       -0.25663437839832       -2.28981146782946
H           -6.44587982481410       -1.86795357440946       -1.63015937275968
H           -7.52844809229637       -0.53685083400024       -1.21350512790220
H           -5.51559307424782       -1.15119115605436        1.87090508549424
H           -7.14289616741421       -0.75739134153375        1.32513357896204
H           -6.41230104481210       -2.25977695312951        0.81611792163933
F           -2.21496585874931        1.27691311273109       -2.47316484595519
F           -3.26731151920834        2.33032522677894       -0.92980382314206
F           -4.32024906741237        1.17303153380268       -2.39898058284686
F            1.84331286109887       -1.56232828275590        2.89935602845420
F            3.09503858983237       -0.06412027803471        1.98469142443362
F            3.73606305026566       -2.11105004972610        2.16108855858794
C            4.87891582971088       -0.95389926345073       -0.19803520460790
C            4.88068521125161       -3.47441907236329       -0.36555980594614
C            4.40872390397976       -2.04286996721714       -2.35435599812175
H            4.25612294718235       -0.07038118265758       -0.30801626789965
H            5.11251603746996       -1.09718423946060        0.84902777584654
H            5.82211100824452       -0.75791405963278       -0.70201869384634
H            4.80872167370060       -3.59079513236934        0.71080203867269
H            4.41778136651964       -4.33816587797596       -0.83818450238942
H            5.93244801868691       -3.45129923078654       -0.63872876392115
H            3.77438606090621       -1.25722681150016       -2.75586165442247
H            5.44369797725631       -1.77710591369689       -2.55195249071438
H            4.21241793522720       -2.97067527417048       -2.88403266155195
C           -2.29909497716712       -4.18715733154564        0.09331013530286
H           -2.61542359397489       -4.80330770029340       -0.74724679442896
H           -1.24383204295157       -4.35972143584664        0.28050443821606
H           -2.86662313079340       -4.50186926391195        0.96599991160072
C           -0.29164169177405       -3.63015002052674       -2.44835723520076
H           -0.34430856606253       -4.69121416185449       -2.20693747454186
H           -1.30173558681960       -3.24126100008076       -2.52925613010970
H            0.19995547037773       -3.53430497356459       -3.41315962661751
