81
 energy: -143.672777415114 gnorm: 0.000770974533 xtb: 6.5.1 (b24c23e)
Si           0.17848412544864        1.05854057555587        0.94375095776363
O           -0.94633233155544        1.54656786195340       -0.10656814524107
C           -1.80310028906220        2.66346700884568       -0.10489993391630
C           -3.01502294634512        2.32644525499141       -0.93441163495523
H           -2.09214528374680        2.89748365043540        0.92730540307429
C           -2.86395154977605        1.59763078034843       -2.10800867477572
C           -4.27816019865283        2.76439049066265       -0.56115096419798
C           -3.96269417009467        1.31596651456957       -2.90022847452839
H           -1.87955250913865        1.24869196619466       -2.38160797394253
C           -5.37589471361324        2.48235654036302       -1.35594750820689
H           -4.39847444992764        3.32240599498573        0.35544630939995
C           -5.22024193106737        1.76044924880352       -2.52726591511823
H           -3.83806134549805        0.75497455165316       -3.81558282421757
H           -6.35583022753422        2.82531040533381       -1.05872713512172
H           -6.07740607663981        1.54307600747003       -3.14770004672303
C           -1.07918736230011        3.87567725993892       -0.72432699011710
C            0.00053725326294        4.33557638877028        0.12088959935013
H           -1.80356455992937        4.68097026720987       -0.87248575845340
H           -0.67359541305894        3.57271889910421       -1.69322238078695
C            0.89033291616106        4.69396570111376        0.83548355185660
H            1.67676132576376        5.00211352870200        1.45691774413363
Cl           2.13139213358088        1.61077915196713        1.40531988539010
Cl          -0.57693677132836        1.94186045340716        2.71347124198874
O           -0.10661699435262       -0.51927350484564        1.55187776574702
O            0.87238583964141        0.24356916556405       -0.64704810369552
C            0.15990979243857       -2.16701600232695       -0.10660334975112
C            1.57926395514120       -1.85017968463677       -0.11140340355702
C            3.18471234507611       -0.13331152564502       -0.62642900438740
C           -2.03682301839305       -1.61497799472648        0.75416689078132
C           -2.65817720497816       -2.31078003919974       -0.26345394849072
C           -0.42694349241608       -3.04987329518882       -0.99835823502406
C           -1.81229842255727       -3.06759352945239       -1.10335458238600
C            2.60412344830155       -2.72482299889199        0.21934735636308
C            3.89767523365141       -2.24059204732478        0.21388336550642
C            4.24435758573367       -0.94366327935373       -0.21900337077915
H           -2.24117089195073       -3.67412664727818       -1.87889402174162
H            4.66364988768414       -2.90966268068872        0.55729027608683
C            5.70609427823999       -0.51079119649795       -0.07386931603773
C            3.34606381320899        1.14136069016124       -1.44365979666203
N           -0.65582076277173       -1.49151672095789        0.76775615976041
N            1.90130387427468       -0.57928507176632       -0.49934113764005
C           -2.68470698476645       -1.08159505034114        2.01047858794353
C           -4.15212652031542       -2.31091096648010       -0.58513155835107
C           -4.81704459921038       -3.54323705132704        0.04406755641745
C           -4.85602140762680       -1.02303322426889       -0.13596914507555
C           -4.33460051854010       -2.38877557947703       -2.11355120169215
H           -5.86437401514724       -3.57478431295478       -0.24491868880413
H           -4.33393177456899       -4.45507321114451       -0.30069220821861
H           -4.76141199749135       -3.51239256646654        1.12709469753104
H           -4.24453283663320       -0.15278340624745       -0.35792179068463
H           -5.79293035289121       -0.91512941460742       -0.67679263251011
H           -5.10599079148067       -1.02406486489808        0.91704525073478
H           -4.11037328138016       -3.37485755017707       -2.50998831497301
H           -5.37198523749945       -2.17723097143674       -2.35834935281382
H           -3.71186996725432       -1.64948566188720       -2.61006218050248
F           -3.12737756704598        0.17654369159132        1.93185058605285
F           -1.87794539153177       -1.16086010201411        3.07113918539213
F           -3.74342434515434       -1.83745350044921        2.37382030568308
F            2.24201967558648        1.78610298908238       -1.79525928073561
F            3.91113825892131        0.79610721357783       -2.63383040444038
F            4.14097067574962        2.06946870175138       -0.91022214609726
C            6.30762949908367        0.09165176169799       -1.35224651766289
C            5.76629603956391        0.48821430115503        1.09437434006592
C            6.62012643070379       -1.68955723862466        0.30335924512231
H            6.04121198989874       -0.50457199975478       -2.22165899718611
H            6.00343798777288        1.11584913117307       -1.51855789465990
H            7.39150969709520        0.09699015749023       -1.26738962484185
H            5.11379199880945        1.33957400944106        0.94548685455857
H            5.46364222845706       -0.00103532640288        2.01723984887543
H            6.78601840427643        0.84637969416633        1.20880899972964
H            6.59872697724448       -2.46973824003960       -0.45428858985586
H            7.64111683363300       -1.32276910289957        0.37400148537294
H            6.36879189684950       -2.10880304022938        1.27393829427747
C            0.38576714884214       -3.88213810515499       -1.94109411269298
H           -0.09124917354448       -3.90820974208190       -2.91773644750363
H            1.39357176872343       -3.49477134712697       -2.05310812078644
H            0.44413093175696       -4.90599489451025       -1.57353579715594
C            2.32715033192928       -4.11934250542550        0.68403570137483
H            2.65763759916423       -4.83881121251123       -0.06360617831677
H            2.87991889496606       -4.31698214761293        1.59974480547957
H            1.26887060213539       -4.26738845389855        0.87478956420141
