87
 energy: -124.663296965556 gnorm: 0.000516520198 xtb: 6.5.1 (b24c23e)
Si          -0.09624935399647        0.72763229792543        0.47632148164921
O           -0.28474513640839        2.22582003485312        1.05514361987254
C            0.13532894663205        3.48751829761095        0.58406793087278
C           -0.82113841233115        3.98695087278565       -0.46724460000302
H            1.14135109351751        3.39998406925771        0.15940870663261
C           -2.18863191696717        3.93931571603232       -0.22837722949737
C           -0.35750100214334        4.47510202514342       -1.68031622461010
C           -3.08121148066232        4.37283950142506       -1.19193813476092
H           -2.54777460329811        3.54414714740762        0.71034315870042
C           -1.25169502986516        4.91258922210536       -2.64176135914638
H            0.70447091687055        4.49765777665455       -1.87519937252274
C           -2.61401457372300        4.86213248787554       -2.39998432732594
H           -4.14332796139942        4.32715376497714       -0.99936660391662
H           -0.88344448779747        5.28692018841402       -3.58575319098150
H           -3.31066979007321        5.19928267504638       -3.15384932659729
C            0.17115112356630        4.44370190121024        1.78883199709691
C            1.18702779716850        4.04329937882108        2.73748589656897
H            0.37557006056036        5.45586966618732        1.42951423759576
H           -0.80511439412500        4.42789546487035        2.27866941640754
C            2.03406649768867        3.68099664361010        3.50082733722825
H            2.76662158241572        3.37378204529657        4.18532223414256
Cl          -1.38931337620064        0.09060976506433        2.08679310580062
Cl           1.14312994676184        1.33659869268645       -1.25765665219078
O           -0.91415770954194       -0.19117318366372       -0.70506726138459
O            1.06570373673954       -0.33893011671738        1.09757665773092
C           -0.37612382348152       -2.38824814949610       -0.18839343440157
C            1.03237739280070       -2.16672676806254       -0.34492775378361
C            3.10657416835437       -1.02621630686361        0.19034679419452
C           -2.68822826849362       -1.67196465239846       -0.33149534420975
C           -3.14165286047435       -2.90296275709222        0.12043238928449
C           -0.84214255737215       -3.68702887342104        0.05706765581699
C           -2.16793276673448       -3.92363277340048        0.27011002917911
C            1.78799572830532       -3.08872797459651       -1.08305048107738
C            3.11603808816206       -2.88314506872476       -1.31126458588360
C            3.81963572353323       -1.80784748786512       -0.70790632369416
H           -0.12022095232891       -4.47867737878350        0.17653310138117
H           -2.46650192113679       -4.91981431180364        0.53968366893414
H            1.27550500113812       -3.91330000454435       -1.55159958639395
H            3.63151069953035       -3.57501725651101       -1.95120456727044
C            5.28274285174492       -1.58224956540347       -1.09697598775268
C            3.75611171903858       -0.14485701699474        1.23395782831611
N           -1.35236466856823       -1.43942274713346       -0.38811594584852
N            1.75871833402996       -1.17202506124231        0.27352023167048
C           -3.58108895723807       -0.62899967348877       -0.96485705340190
C           -4.59369837691262       -3.21382741540896        0.48847641910848
C           -5.20484971412638       -2.05455296555062        1.29796045050279
C           -5.42643079330444       -3.53610193346988       -0.76247966593828
C           -4.66609585426321       -4.45170901428555        1.39987544757940
H           -5.60094112688178       -1.26221019086524        0.67390000562724
H           -6.02749374249348       -2.42344873325776        1.90600245809830
H           -4.45499294472938       -1.62937171524477        1.96002385646520
H           -6.44637602759801       -3.77567093444938       -0.47021609355212
H           -5.46084751416948       -2.71142924260039       -1.46758489731393
H           -5.00482686825548       -4.39718381006366       -1.27730418423131
H           -4.01209915283697       -4.33578996240621        2.26021120590109
H           -5.68539863276457       -4.56762098929801        1.76117569982555
H           -4.41165766868893       -5.36670659676594        0.87100386453201
C            5.61024444000867       -2.30117284326678       -2.41816288587867
C            5.55270875469192       -0.08883497549854       -1.35589516702526
C            6.23482209406016       -2.15791952939225       -0.03652975379559
H            4.90464521748424       -2.02290563097585       -3.19680476382499
H            6.60587649155396       -2.00854086505192       -2.74390970665420
H            5.61837598031273       -3.38229195926401       -2.30548858606272
H            6.05278180312096       -3.22401059714863        0.08424023756012
H            7.26492584819111       -2.01919016942080       -0.35726288893703
H            6.11749548433619       -1.68851745318731        0.93502139326817
H            4.72364884305157        0.34568846991477       -1.90874866078741
H            5.69505741074961        0.48629485156538       -0.44919427893068
H            6.45581580777947        0.02274463959992       -1.95179732253587
C           -3.18790262569525       -0.46196700301693       -2.44098831176909
H           -4.58672539166055       -1.04095926807843       -0.96077856463499
C           -3.64491454052262        0.72988880108196       -0.26525812518964
H           -3.92053983758833        0.17316898446870       -2.93358693606099
H           -2.21294792773174        0.00473221718882       -2.54086105002961
H           -3.17026369514390       -1.42726895477031       -2.94488379098662
H           -4.52502259440940        1.26808988101592       -0.61196249721398
H           -3.70437051851649        0.60590653593734        0.81155319136836
H           -2.77274229323638        1.33204553984380       -0.49555189494157
C            3.43570976242920        1.34982129177497        1.15376257658633
C            3.44356358310633       -0.70001348880115        2.63212947196081
H            4.82936467998102       -0.25027115081965        1.09915911589295
H            2.46884607433650        1.57540066426320        1.59101311773182
H            4.18897224552206        1.90824701507368        1.70599064031074
H            3.43703946292251        1.68770979743777        0.12180650205160
H            2.39720909790360       -0.56641055379478        2.88754237639439
H            3.68792261998100       -1.75992666600813        2.68620419485212
H            4.04547473580807       -0.16884558405215        3.36573566825293
