87
 energy: -124.665513479713 gnorm: 0.000403888317 xtb: 6.5.1 (b24c23e)
Si          -0.25459509235979        0.87603565878732        0.53179456257013
O           -0.46345129981458        1.88910173857003       -0.72075886697455
C           -0.30766671776405        3.28411098198662       -0.82371347188375
C           -1.34574111451781        4.05599611023575       -0.04896190626715
H            0.68669051195518        3.56350904798860       -0.45548836763752
C           -2.65680368527286        3.60951646692864        0.02403936355688
C           -0.99857940652398        5.24787405130515        0.57294178272129
C           -3.60489932857573        4.33659651688680        0.72154838819262
H           -2.92952518046422        2.68047376808568       -0.45077783920699
C           -1.94829760088003        5.97821362256982        1.26279217741145
H            0.02382187200248        5.59412023555811        0.52871916845804
C           -3.25390021301687        5.52345576606391        1.34004505325935
H           -4.62018328447109        3.97253523692389        0.78253702058481
H           -1.66637041778352        6.90015616167385        1.74995200057251
H           -3.99364887437440        6.09008421556296        1.88656828826702
C           -0.41173659469823        3.64100989981197       -2.32001985797249
C            0.64779601341087        3.02101643572714       -3.08452861810011
H           -0.35793107280833        4.72739883904391       -2.42765124092826
H           -1.37888478706403        3.29506737830685       -2.69312113449098
C            1.53444612526002        2.49595682475516       -3.69274120784542
H            2.30251854309366        2.04335675352283       -4.24548663250684
Cl          -1.94016055800012        0.26116267464993        1.60104795855501
Cl           0.24478811294498        2.39254169157086        2.01892899996969
O           -0.44783559403718       -0.42529262904467       -0.69704290771214
O            1.21323333465438        0.21048322445039        1.05117607561407
C           -0.08926166179904       -2.35902302137374        0.51968606434966
C            1.30465772064742       -2.11535959797660        0.62615494021858
C            3.25467429589763       -0.69516637875373        0.38807872915323
C           -2.17154365468575       -1.99358097766790       -0.64419842768111
C           -2.78569657638576       -3.05536762200061        0.00782276460379
C           -0.68700576446318       -3.46261602973889        1.15521991411999
C           -2.00075212892670       -3.75443629381043        0.95650900919848
C            2.18354882499270       -3.20830204576918        0.76717980786387
C            3.51946824857012       -3.05964115950662        0.56909121773368
C            4.08717745065720       -1.79700287100733        0.24601900797834
H           -0.11075548575679       -4.02624174246137        1.86975390250464
H           -2.42511217950457       -4.55939855432979        1.52690694756008
H            1.77173588900890       -4.18723394903906        0.94554411781066
H            4.14625765783032       -3.92777720630388        0.65528502113671
C            5.54133389331865       -1.75531626229694       -0.23162677195514
C            3.77795369496725        0.71999118246378        0.46946839189032
N           -0.91534328917271       -1.62060488130480       -0.28702374356773
N            1.91729305973466       -0.87249699541206        0.57564678235265
C           -2.74575330830031       -1.28646719568964       -1.85168391208698
C           -4.24014029154936       -3.48954079975460       -0.19893871711712
C           -5.18931407326613       -2.28120540761672       -0.10957202847088
C           -4.39993700407521       -4.24976429288051       -1.52610586667594
C           -4.69857112455112       -4.45766898571928        0.90562948481347
H           -5.21656946483802       -1.68860497663843       -1.01560326383269
H           -6.20347837769364       -2.62511603951972        0.08170731367363
H           -4.88572371356231       -1.63839314250734        0.71314401706167
H           -5.43702407249666       -4.55409593140599       -1.64892100865104
H           -4.11660579435010       -3.66072929293046       -2.39204803510917
H           -3.77903705859142       -5.14348368620408       -1.51517101411052
H           -4.57866197832909       -4.01204531356578        1.88974865634100
H           -5.75448784123572       -4.67771890642691        0.76363485110874
H           -4.16717553372444       -5.40533141061171        0.86498808675477
C            6.08173275295947       -3.17035689392300       -0.50690927365345
C            5.63613383633325       -1.02108253897618       -1.58094800841821
C            6.48006416175340       -1.14838928169176        0.82499752433945
H            5.42796647748632       -3.72272600506889       -1.17749715649759
H            7.05466056772645       -3.08528514471614       -0.98633849919370
H            6.22056356566533       -3.73585176625630        0.41108837815231
H            6.32831350776394       -1.64830406096328        1.77936884531975
H            7.51384946118084       -1.30043653289305        0.52150689679205
H            6.33307040672404       -0.08522665306611        0.97560313938601
H            5.10136982427884       -1.59080228770926       -2.33840133144941
H            5.21826438390975       -0.02206080580129       -1.56615773068020
H            6.67879913247763       -0.94685815119594       -1.88276809976052
C           -1.77355200323450       -1.40420956765474       -3.03384031403108
H           -3.64485838611120       -1.82752154329567       -2.13452061244264
C           -3.14054244909935        0.17426235953363       -1.62544684190505
H           -2.26221949008862       -1.03943677942770       -3.93446389672230
H           -0.88150980629153       -0.80926320532112       -2.86454817026701
H           -1.48577574883647       -2.44265935725043       -3.19245627678645
H           -3.78387446181269        0.50312438185809       -2.44012311492894
H           -3.67601514400126        0.28287497813586       -0.68620651441546
H           -2.25730016179163        0.80136697804316       -1.60482194238369
C            3.05683653164059        1.72528298614200       -0.43508240382949
C            3.78105746118450        1.19063834200883        1.93197556938641
H            4.81628357729823        0.69144275450596        0.15314336100540
H            3.75112510224673        2.50363177418474       -0.74487735738393
H            2.65320445975985        1.25066886642665       -1.32634959004743
H            2.24334151317398        2.20087665460317        0.09800136370230
H            2.77071185037853        1.32786719574978        2.30242711622855
H            4.29604031249903        0.46923327079047        2.56351346577840
H            4.29900071558269        2.14438714908444        1.99736244752091
