87
 energy: -124.667310763037 gnorm: 0.000370820855 xtb: 6.5.1 (b24c23e)
Si           0.49636570781335       -0.67449412717499        0.72286606207054
O            1.18778004668849       -1.64949095420599       -0.37963841721097
C            1.54731146181547       -3.00917917301717       -0.29719519029756
C            2.61997851569766       -3.27586875747067        0.72818594717199
H            0.65320521304771       -3.59439099225744       -0.04783120357123
C            3.65587326866153       -2.37240280447907        0.91446406134361
C            2.60153680803224       -4.45084793041690        1.46706497279245
C            4.64776642275447       -2.62851953941850        1.84396319535545
H            3.67137288965013       -1.45608853454587        0.34492158635480
C            3.59834709892454       -4.71061366929727        2.38906868942479
H            1.79216594309402       -5.15335271044383        1.33130024950516
C            4.62218820410968       -3.79854729781603        2.58206356001661
H            5.44040459049960       -1.90977947004219        1.99276311296415
H            3.57019023247884       -5.62286213928955        2.96680419126004
H            5.39453023265403       -3.99715317628363        3.31076590991346
C            2.07469093222995       -3.43124952539602       -1.68344495354238
C            1.06928426356446       -3.29125525741018       -2.71300300458721
H            2.40374689310822       -4.47232360804006       -1.62829580110304
H            2.93393175962449       -2.80245934929527       -1.93091912628950
C            0.22906530273674       -3.16533937815491       -3.55550612824797
H           -0.50029772058612       -3.05583002156595       -4.30097425816308
Cl           1.74406535060866        0.59594443345284        1.81437493947839
Cl           0.35978368933639       -2.11273318040624        2.34528376802789
O            0.35150873153768        0.51078299807697       -0.64414447969207
O           -1.16566611862242       -0.56951210584642        0.97803742977683
C           -0.70549985889147        2.29608140984682        0.38247254501688
C           -1.94185058814939        1.61026927414487        0.48873483254509
C           -3.29340786016446       -0.35841998983229        0.03846810335165
C            1.42424089984746        2.56842722943153       -0.72069380574979
C            1.61665495852891        3.82739271399183       -0.16370730126933
C           -0.51695837476152        3.56592466154750        0.96026136060936
C            0.62434580958940        4.27271879458963        0.73995256304602
C           -3.13846031210314        2.32632003715912        0.68357303381150
C           -4.34759309367646        1.72969337865221        0.50473270868875
C           -4.45943377956480        0.38538138136899        0.05013558630058
H           -1.25886033623520        3.94534847339816        1.64204364486130
H            0.74121214201564        5.20419090066502        1.26167643029784
H           -3.09252160915816        3.37575525598271        0.92074770506361
H           -5.22826901858325        2.31944314124869        0.67645649012140
C           -5.84020666725201       -0.11881173399992       -0.38466154411870
C           -3.20854998823557       -1.82336137706590       -0.33032988195368
N            0.35391589982457        1.82161702979132       -0.34733103649658
N           -2.10223240064111        0.23919742946472        0.35678338768757
C            2.27777220912482        1.98000375922901       -1.82240192251328
C            2.82507468275855        4.73151032363757       -0.42737470482944
C            4.14346218496602        3.96894325303934       -0.20541254660061
C            2.74391250853380        5.34484799504598       -1.83545472523423
C            2.86610697860135        5.91866628345466        0.55039763048000
H            4.41164128196048        3.32286732222122       -1.03208231650682
H            4.95789242211645        4.67767126149558       -0.07186274450672
H            4.06760982812136        3.36314606839376        0.69427388590621
H            3.61037973425151        5.97980312698074       -2.00663836188657
H            2.70928596771398        4.60143822264583       -2.62467054221662
H            1.84823360248376        5.95753016740514       -1.91766837488506
H            2.90698559942220        5.57596789418383        1.58112716603031
H            3.76432811904282        6.50104583085975        0.35627090679223
H            2.01761729914321        6.58558793897264        0.41854714664122
C           -6.91977886580178        0.96872022831535       -0.24391778237218
C           -5.82834501990156       -0.48736965704493       -1.87828475407799
C           -6.31621825772839       -1.28678595115195        0.49528317837770
H           -6.68261905942158        1.84992918986638       -0.83496556998967
H           -7.86364048724367        0.57184352049421       -0.61204308998231
H           -7.06810587677082        1.25405310127487        0.79459653699277
H           -6.24093031489028       -1.00709709560889        1.54390912550864
H           -7.35911116224053       -1.50624992149664        0.27561390461390
H           -5.75022601222755       -2.19815964477646        0.34902077444715
H           -5.58835440815965        0.39531953901542       -2.46786916851405
H           -5.10981495447333       -1.25826958327765       -2.12996229266873
H           -6.81467609910762       -0.83845088526384       -2.17427042798308
C            1.40942327627258        1.60652523455713       -3.03156531121978
H            2.94809680338623        2.76790714984661       -2.15540480163235
C            3.14408848117304        0.79314544155354       -1.39207955884983
H            2.05606728418770        1.35386553642689       -3.86878436650169
H            0.78395688859722        0.74697849034865       -2.81267289062398
H            0.77694322497577        2.44413124042994       -3.32277201557603
H            3.91672209114189        0.62217084084943       -2.13986161419376
H            3.61747859156074        0.99491947773971       -0.43484844283213
H            2.54032305133825       -0.10227428358079       -1.30681113244784
C           -2.19043501617431       -2.04246073455217       -1.45345262760941
C           -2.96018239507047       -2.74806799613927        0.86814149655937
H           -4.17599285604305       -2.10964827307543       -0.73575689444815
H           -2.21137729688730       -3.08512375492494       -1.76191467789073
H           -2.44075356803879       -1.42152726353628       -2.31252535670355
H           -1.17759586069632       -1.80686253003300       -1.15196234022562
H           -1.95724674609427       -2.64601302009670        1.26430683462482
H           -3.66496970956863       -2.52700354621559        1.66652963766126
H           -3.10399368622536       -3.78040603757579        0.55552019648906
