87
 energy: -124.586309797039 gnorm: 0.000507496547 xtb: 6.5.1 (b24c23e)
Si           0.71662706928059       -1.48675868786268        1.01967868260493
O            2.19714245181556       -2.08650278871820        0.65173198858280
C            2.61098688082947       -3.20550367345229        0.03307096293569
C            3.94710834703774       -3.39599474122236       -0.29558555496764
H            1.85822389167141       -3.94324717025470       -0.20717012467533
C            4.94102242615987       -2.43203714877680        0.01523044713117
C            4.35897360191495       -4.57875426783595       -0.96255499130291
C            6.25235740213315       -2.64389383450448       -0.32903130356647
H            4.64105454468050       -1.53330477402797        0.53112228081279
C            5.67573953285188       -4.77098691221028       -1.29706669786022
H            3.61443017564695       -5.32318229065907       -1.20227125921067
C            6.63390585884078       -3.80932645342037       -0.98731995297924
H            6.99809438302313       -1.90035087334797       -0.08590347107851
H            5.97452853464784       -5.67646058289770       -1.80570096037563
H            7.66735332242617       -3.96885538860168       -1.25479740177389
C           -2.06705124948984       -3.33828940943749       -1.11089465196000
C           -1.22428719262227       -2.40105880875383       -0.81975249316740
H           -1.75967529939407       -4.22815014238146       -1.63602613515087
H           -3.11101535868089       -3.27113253473181       -0.85571253733452
C           -0.35893515754131       -1.47964692861913       -0.52476368007875
H           -0.19193199358628       -0.68752103432800       -1.25383026188640
Cl           1.26999145142602        0.29349730452464        1.74820001860465
Cl          -0.11440983246685       -2.64832097167694        2.45414078411355
O            0.29742333899627        1.05323763407546       -2.04905087223643
O           -1.92907028770571        0.63960723848875        1.52582192783468
C           -0.64596975160022        2.07560422278871       -0.27888891466317
C           -1.90487690178307        1.38609473986799       -0.59891578164350
C           -3.77149990623004        0.17924692071822        0.24250414270076
C            1.63809585162450        2.44494058885475       -0.81494174065531
C            1.77850766397570        3.31648124454300        0.27096763610925
C           -0.55165260604358        2.94790759678297        0.78137837257808
C            0.64763442136276        3.56892413084736        1.04805316805132
C           -2.47105900660011        1.41683967669461       -1.85202921971091
C           -3.68993428711617        0.80960294169584       -2.06412267922809
C           -4.38340384219833        0.20206403887594       -1.01718044491160
H           -1.41434158798136        3.12145383024128        1.40280921249173
H            0.68478860456867        4.23871185839617        1.88577424663646
H           -1.95125178335484        1.91278790526532       -2.65467504820279
H           -4.09600831493614        0.84241262192615       -3.05720367254361
C           -5.77413879626881       -0.37590261149203       -1.31036520647582
C           -4.38950615790506       -0.37918848981952        1.50826615736192
N            0.43396105737169        1.85563461000527       -1.07143766983964
N           -2.53057023266672        0.72664839633471        0.41432560178766
C            2.74323005110001        2.05897513696493       -1.77511972828350
C            3.09958727274141        3.98062929322051        0.67605638204403
C            4.13943969458043        2.90548058404985        1.03595672089014
C            3.59572621400229        4.94397517282400       -0.41461140606527
C            2.94774615459184        4.83950965071665        1.94337533001929
H            4.50054654689899        2.34603202702658        0.18195477874673
H            4.99833930124039        3.37429918839690        1.51159283029903
H            3.69769431662891        2.20103685395254        1.73705591787550
H            4.53979190119439        5.38730022026074       -0.10500079731710
H            3.74754047585311        4.47191479137636       -1.37762640522171
H            2.87079129604697        5.74478415385909       -0.54812862061232
H            2.64011007888485        4.23798712804146        2.79461461421513
H            3.91303514184378        5.28152359308216        2.18187408067144
H            2.24426632360195        5.65587747518385        1.79779209261338
C           -6.16379451090212       -0.23311679213401       -2.79225588749585
C           -5.82243415893896       -1.88567794584884       -1.02637070127236
C           -6.84860434522114        0.40219770241653       -0.53130712379964
H           -5.46286478049601       -0.74879861541094       -3.44386094824817
H           -7.14207374655457       -0.68673867474314       -2.93837892707303
H           -6.23850275770996        0.80973663323896       -3.09052646669026
H           -6.78883292521096        1.45804868911977       -0.78845150818885
H           -7.83532202906482        0.03927669188804       -0.81114179322968
H           -6.75521394393248        0.31596547114245        0.54414381685766
H           -5.16702062477402       -2.40010992155652       -1.72652064351941
H           -5.51646122340248       -2.15062297703455       -0.02208482450021
H           -6.83536542857878       -2.25267579909882       -1.17881881226773
C            2.42270020099441        2.49723136895273       -3.20980201788044
H            3.64941815538461        2.58058850106822       -1.48328492639522
C            3.05169615486415        0.55802261574416       -1.70360958531237
H            3.27508251288569        2.28419177072592       -3.85060929659710
H            1.56047499856807        1.95954957286472       -3.59061005828497
H            2.21855770196720        3.56647252519271       -3.24508215439908
H            3.96012871089034        0.34533212698225       -2.26288859176625
H            3.19675872559392        0.25170164911369       -0.67072881136612
H            2.24097583177135       -0.02331799481222       -2.12958972430789
C           -3.59279241578740       -1.55137719437263        2.09166727637498
C           -4.56668301364242        0.73083040533219        2.55305226350626
H           -5.38209242968485       -0.75456866363180        1.27463705827991
H           -4.14840403797801       -1.98716202293875        2.91902046901983
H           -3.42545603937648       -2.31911787542033        1.34030973126087
H           -2.62994686666272       -1.21398567439947        2.45789607766717
H           -3.59961253122537        1.09016898028094        2.89072449875355
H           -5.13187814934191        1.56319266184934        2.13590255085521
H           -5.10734706972439        0.33770553461872        3.41060836695998
