87
 energy: -124.575080083549 gnorm: 0.000441880063 xtb: 6.5.1 (b24c23e)
Si          -0.36975521438553       -1.44382896627628       -0.73195893953924
O            1.08490536332608       -1.22252134853577        0.27320869162177
C            1.91551904008383       -2.09859477052346        0.71026566749306
C            3.00850481875601       -1.75185464045309        1.52849466044680
H            1.75966064836382       -3.13984566145583        0.44650736144139
C            3.19123372501687       -0.43128698272179        2.00027672790566
C            3.94627223051285       -2.73396099527914        1.91833868427606
C            4.25560596006992       -0.12066940607154        2.81289105689980
H            2.46408833367543        0.31787151012844        1.72521163738869
C            5.00943602364970       -2.40425755412344        2.72407104521776
H            3.80996185258998       -3.74657334501983        1.57030821781551
C            5.17534044395730       -1.09832295433082        3.17638287459615
H            4.37919227111712        0.88918803731621        3.17922007958300
H            5.72147390578218       -3.16298916336314        3.01458068985365
H            6.00964811494584       -0.84675825979790        3.81331456486107
C            1.82096470207921       -4.45655736198452       -2.10910511555876
C            1.10403939967363       -3.38183289191424       -2.22934819596043
H            2.89498238017919       -4.41442124577168       -2.01185548879843
H            1.37088902059847       -5.43559140764794       -2.10997661302044
C            0.40230675081703       -2.29841707577937       -2.27758347910860
H            0.15656583172997       -1.86818132565101       -3.23811614253662
Cl          -2.27629052043401       -1.13750165956782       -1.85857200488543
Cl          -0.81473448201512       -3.32367141605390        0.24736796316177
O           -1.21724557543514       -0.58823346735843        0.69483521267030
O            0.15601873577046        0.22833337621240       -1.47137333747087
C           -1.52774233156661        1.59825875239647        0.17787001934305
C           -0.08309449137063        1.81513366741881        0.14346235336565
C            1.99819131816914        1.57563532245671       -0.99179331878013
C           -3.40047691196819        0.24825585657977        0.74618806064801
C           -4.28070971232532        1.27556719302003        0.37220334185286
C           -2.35952654694803        2.68023518347097       -0.04440151329807
C           -3.72061422810033        2.49816729399425       -0.01819320927035
C            0.46801357046664        2.79169355259350        0.95277333195825
C            1.80928239704539        3.07528281857165        0.86715084243865
C            2.61010115854559        2.49204532054947       -0.13151481170969
H           -1.92704626479292        3.63517754009952       -0.29701856436530
H           -4.34405535517621        3.33430507287934       -0.27437144502062
H           -0.16010109248391        3.28918599895097        1.67463516927426
H            2.21709147992000        3.78503580329659        1.56131877119195
C            4.07412715892535        2.94732095537335       -0.22253316005339
C            2.64651772642801        1.05673389478973       -2.25320156788938
N           -2.06953518914176        0.41059313756261        0.52688454630590
N            0.71035982949237        1.18850021567869       -0.76200196414294
C           -3.84240245944186       -0.94910717432365        1.55252513156802
C           -5.81202735317846        1.17555029207642        0.37863258354609
C           -6.29952268554734       -0.16855229813550       -0.18416686151063
C           -6.35624754757017        1.42699855607343        1.79475544562886
C           -6.43246675600396        2.25443472033901       -0.52928456837461
H           -6.24138826168383       -0.97734124168891        0.53228159928963
H           -7.34089144487423       -0.08155342427954       -0.48570377725157
H           -5.71387849446924       -0.43472706020517       -1.06000030373473
H           -7.44319277364313        1.40223281087853        1.77343599368458
H           -6.01728955243243        0.68757405767010        2.51380401444274
H           -6.04089926959433        2.40683461396220        2.14841442912923
H           -5.99284519724522        2.22421974565117       -1.52285975292694
H           -7.49825686523686        2.06232711399754       -0.62695408001336
H           -6.33126777631576        3.25447570548634       -0.11481035145614
C            4.50718412199173        3.69762535701447        1.05041809567002
C            5.05078433263395        1.76514215904900       -0.34952111161937
C            4.23587447032806        3.94407226592231       -1.38309391014243
H            4.34429182993786        3.09097942444705        1.93733796091007
H            5.57086863312818        3.91433536126900        0.98520258128785
H            3.99692543903888        4.65123895401283        1.16007815952461
H            3.59563774419358        4.80889135756504       -1.22007588148353
H            5.26777631602991        4.28454042830497       -1.42717348252063
H            3.97984754579691        3.51888922147852       -2.34798381980741
H            4.78145311859573        0.98080570992042        0.35402268734521
H            5.09025581478312        1.33887395253950       -1.34383198818199
H            6.05688116226201        2.10112924164155       -0.10842415437559
C           -2.97348478135265       -1.12544173476628        2.80541383621994
H           -4.84061281739743       -0.70290471022661        1.91113002738949
C           -3.93670241699231       -2.26886433265764        0.78063736958643
H           -3.44974804023028       -1.85526725548213        3.45548237438499
H           -1.98498340788249       -1.49415749316911        2.55337345521370
H           -2.87870546172405       -0.18601529458789        3.34995534689781
H           -4.61303253345360       -2.94315348259548        1.30139680606100
H           -4.29488765889368       -2.11350421335007       -0.23059556056860
H           -2.96650408434961       -2.74460336137690        0.71946108022495
C            3.07258728618984       -0.40944191316863       -2.15837242339218
C            1.76302260989977        1.30491356305384       -3.48315104433478
H            3.54515576480360        1.64830256788100       -2.40977395792432
H            2.20948105288220       -1.06566796279957       -2.16704565596858
H            3.69880601260547       -0.65885535461500       -3.01226172372119
H            3.63677377890939       -0.59328782045145       -1.24719260013569
H            0.85953006077468        0.70597938980210       -3.45655587043982
H            1.48639920105514        2.35669706054995       -3.54589584693866
H            2.32410106812843        1.04183489363298       -4.37664395138188
