87
 energy: -124.665284869729 gnorm: 0.000773093945 xtb: 6.5.1 (b24c23e)
Si          -0.00399901960118       -1.66900193699108       -0.41679386523697
O            1.46804852028347       -1.34994616150567        0.19393333380301
C            2.32393542691013       -1.53516974220028        1.29261855229501
C            1.88841838200523       -0.65333540455538        2.43850828973282
H            3.30058493387692       -1.17679336727236        0.92755452575906
C            0.61108937868695       -0.76076070598925        2.97357023824323
C            2.75129649178677        0.31416079415153        2.93636305635918
C            0.20060329895769        0.10143749431598        3.97473891710541
H           -0.06475856464291       -1.51422691450585        2.60132330275631
C            2.34545557581520        1.16562319318645        3.94836578980844
H            3.74912061478268        0.39880508376042        2.52837936661419
C            1.06450907741956        1.06683492770098        4.46349896173089
H           -0.79802025490817        0.01532148211510        4.37723944873526
H            3.02758114886239        1.91145758767697        4.33054166793526
H            0.74245412759933        1.73795390201636        5.24654810563840
C            2.49541651708310       -3.00270110844621        1.71831381530513
C            2.97509382713002       -3.78099042249795        0.59682975291160
H            3.21485761693982       -3.03923101532975        2.54103924323020
H            1.54132256181209       -3.40859206134241        2.05621781688462
C            3.35854826195769       -4.35561818976988       -0.37975278264122
H            3.68433718153363       -4.89824094566836       -1.21571196623263
Cl          -0.18413797415058       -2.74445413166859       -2.16430002761822
Cl          -0.56396064998774       -3.37290416986362        0.80442889830131
O           -1.37831638514886       -0.99116591450026        0.30948412235465
O            0.18611806682705       -0.20459765199355       -1.48161583890787
C           -1.22485935874365        1.36394699240148        0.31604880510892
C            0.17302111616360        1.47908065147528        0.10026278801223
C            2.10226771033177        1.11889979357314       -1.30492042244242
C           -3.34650084727581        0.22352959935433        0.02544150587236
C           -4.04936809745368        1.40709511660181        0.20450223502607
C           -1.94845466577846        2.48666465634415        0.76426482524871
C           -3.30586959100564        2.51107985963433        0.70336384735833
C            0.94815845262619        2.36363491860463        0.87059543163322
C            2.26422895759042        2.56124397032472        0.59215820192738
C            2.88309608134792        1.98214758813290       -0.54197597930425
H           -1.40820812154589        3.36427671903627        1.07676032019076
H           -3.81247544666229        3.39953921680619        1.03176378685149
H            0.50670785510478        2.82039794020459        1.74023750213390
H            2.82177406813062        3.19368038416075        1.25686750357309
C            4.34719892803829        2.34048663849173       -0.82617205833882
C            2.53445771093824        0.54435586940052       -2.63626900544738
N           -1.98602552045264        0.22510782963803        0.10433170771923
N            0.83462958370399        0.83233363265076       -0.91373446871891
C           -4.02239731664227       -1.11575708287809       -0.15988595440492
C           -5.53689207636865        1.61122605643841       -0.09575368257450
C           -5.84413888212864        1.21916442852418       -1.55210408182021
C           -6.43462602859044        0.86586170358171        0.90698236169135
C           -5.93551050164716        3.09431816930826        0.01248966751956
H           -5.52133966044545        0.21921306382234       -1.81414032420252
H           -6.91544689322489        1.28662518332970       -1.72925618903447
H           -5.34294797785915        1.91242259730030       -2.22482665945517
H           -7.46662952942553        1.18436483362676        0.77529093039579
H           -6.40576493466277       -0.21182586588534        0.79694655675351
H           -6.12999006167561        1.10998879045275        1.92259592319092
H           -5.29480775563059        3.72530369592606       -0.59863947293910
H           -6.95507180062379        3.20774126864582       -0.34969416061752
H           -5.91498599040764        3.44469644726106        1.04150484852786
C            4.98078875104431        3.10902732635920        0.34783278471914
C            5.21425611534527        1.08191951407212       -1.00206156985926
C            4.44730970721516        3.27829368373010       -2.04151141094632
H            4.92640350759895        2.53861438414032        1.27180937110717
H            6.03170827292167        3.28238467884417        0.12593719510932
H            4.51897475531966        4.08235524784673        0.49323599859434
H            3.88112969348242        4.18759563709323       -1.84961279674567
H            5.48745338579844        3.55037974700564       -2.20719033887179
H            4.06622065909547        2.83823755246791       -2.95664315788286
H            5.02616035562882        0.38887894434888       -0.18481846861256
H            5.03966851212545        0.55972710945447       -1.93365008826413
H            6.26647983315364        1.35786962247276       -0.97524855227863
C           -3.96375228647125       -1.93561596630400        1.13747150520785
H           -5.07310427778097       -0.91201660880723       -0.34299258143259
C           -3.50728754882828       -1.92215439570874       -1.35840301041828
H           -4.58822806014854       -2.81861422177736        1.02582741743183
H           -2.95306183127150       -2.26275718250421        1.35513707603139
H           -4.33509906297206       -1.34855535253819        1.97551427160728
H           -4.31387835151125       -2.53084212439324       -1.76089615552856
H           -3.14429687594010       -1.26956031932767       -2.14942681400406
H           -2.70637367774147       -2.59185039943882       -1.07158163860778
C            2.84031460584611       -0.95710831578836       -2.62185870256305
C            1.51556584998630        0.88313721073773       -3.73237567213001
H            3.45318542770479        1.05711163609328       -2.90943218943307
H            1.93094768015675       -1.54099212545956       -2.67600439055998
H            3.45335195387368       -1.20630741284867       -3.48574021380378
H            3.37419063199050       -1.24343064886402       -1.72028048918575
H            0.58946923681528        0.33580228486035       -3.59162886260459
H            1.30092977728584        1.95110363204033       -3.73817932825292
H            1.93121769271601        0.60760457508006       -4.69869820212973
