87
 energy: -124.663883839506 gnorm: 0.000400177164 xtb: 6.5.1 (b24c23e)
Si          -0.01840294959373       -0.83353308374855       -0.04301243449944
O            0.29914167164283       -2.41661308566308       -0.04329895058688
C            1.21020236305389       -3.23169070400402        0.65275037577880
C            2.46697213919892       -3.41226242193427       -0.15901759190781
H            1.45792422046894       -2.77093572539788        1.61517184361697
C            2.39620588326057       -3.49411309604679       -1.54331840041685
C            3.70228703123738       -3.50041495929389        0.46762565835954
C            3.54816106721362       -3.65762580330130       -2.29165550576473
H            1.43458626772549       -3.40978019138363       -2.02706622840836
C            4.85273962687960       -3.67013242835491       -0.28164306293850
H            3.76010118761217       -3.42681863193838        1.54401728323987
C            4.77796155138279       -3.74833037690090       -1.66218288841033
H            3.48517908582344       -3.71430684539353       -3.36856193176292
H            5.81097341329710       -3.73569996702113        0.21294063426514
H            5.67773151498538       -3.87680413426563       -2.24628115072569
C            0.52729655201025       -4.59003235803113        0.90015695881976
C           -0.53024877767665       -4.45791592118473        1.87788556450653
H            1.27430169606426       -5.30424138729383        1.25635199305638
H            0.11210097808265       -4.94626630371697       -0.04574305141871
C           -1.39150899701315       -4.29636646509757        2.69269711257580
H           -2.15226909230471       -4.17674760473310        3.40444558498348
Cl           1.31529662229876       -0.36792332252081        1.68277363664330
Cl          -1.24168385960971       -1.19478386839956       -1.78247801466449
O            0.59576970340046        0.47487332140001       -0.94188808932700
O           -1.25017948534121       -0.15730870935092        0.90376215320823
C           -0.22263276306980        2.35660358315661        0.14061778473050
C           -1.59051273734979        1.95343210060142       -0.01845754375142
C           -3.42676980724674        0.39055334454824        0.25577799590055
C            2.15210098863832        2.09718632099027       -0.28873331653071
C            2.45292046541771        3.24304211770051        0.43364072931499
C            0.06339354162357        3.60995482693223        0.69849858255201
C            1.35191312102749        4.00876258169671        0.89863262952081
C           -2.52494022171900        2.89763641031933       -0.46603684979578
C           -3.81980400010553        2.54319403566492       -0.70203400919354
C           -4.30838261816341        1.24875792591765       -0.38701790489624
H           -0.75584831296555        4.21135143416310        1.05828534006234
H            1.51771283443767        4.94011959135975        1.40751564084852
H           -2.17568043629714        3.88623321038927       -0.71680522012758
H           -4.47710258267839        3.28179703099107       -1.12198392913368
C           -5.74230038370197        0.89247380243773       -0.78662554501063
C           -3.86734240128375       -0.82482897306278        1.04065888214125
N            0.86650083629005        1.66234486450731       -0.33516630312916
N           -2.11518251815477        0.73193377646743        0.34488900419962
C            3.13185681280000        1.39003934607765       -1.19888964951115
C            3.86886399592013        3.71358120103490        0.77511213242061
C            4.72518627797697        2.53412480472948        1.27144604540371
C            4.51939982764132        4.42891211245579       -0.41978011113593
C            3.84358270820993        4.72857886276286        1.93180971176720
H            5.12084969809822        1.92266614372498        0.46945895058038
H            5.57421528429513        2.90931124487318        1.83850198211153
H            4.13305514644457        1.89792200170577        1.92455201037312
H            5.51088077656921        4.77789647830892       -0.13981689113931
H            4.61999276375585        3.79002207482766       -1.29131274718908
H            3.91967731662874        5.29076411071669       -0.70586487442968
H            3.31079691688158        4.32648538149161        2.78969716412361
H            4.86524353472741        4.94186499895418        2.23820649281222
H            3.39657524311982        5.67461839452664        1.63693915385300
C           -6.25440524522084        1.85069881687393       -1.87699811289024
C           -5.80222529654886       -0.51764722881419       -1.40316955362068
C           -6.69972984589039        1.03230606758101        0.40773731738655
H           -5.56476604231531        1.88530713640769       -2.71643672129929
H           -7.21466491814030        1.49285576919209       -2.24144360375095
H           -6.41515923373322        2.85663001342840       -1.49778503923615
H           -6.68292072164693        2.05531814411274        0.77849401305541
H           -7.71380155744730        0.79751521802413        0.09208765791993
H           -6.44120446979122        0.37568949829166        1.23257645817222
H           -4.92257641683998       -0.69179216885267       -2.01744992265904
H           -5.86403850013873       -1.30602800553028       -0.66258865055627
H           -6.68231367701779       -0.60485490516466       -2.03612180747580
C            2.64830447880673        1.51476057045983       -2.65195335025564
H            4.06499631674964        1.94373950857025       -1.13929142429440
C            3.45167400672625       -0.06634263145992       -0.85362361889624
H            3.42261192815458        1.13741948556021       -3.31581622050499
H            1.74408365427621        0.93837309028404       -2.82033309860231
H            2.45390527577610        2.55674431662231       -2.90198129963066
H            4.36334842664433       -0.36712417449464       -1.36621307798052
H            3.59574503877325       -0.18950434144370        0.21543380578652
H            2.65884240319400       -0.73490564531256       -1.17028052223332
C           -3.35269550971186       -2.17779520939001        0.54353603864138
C           -3.53558268297496       -0.62371296571817        2.52745247554479
H           -4.95189991413644       -0.85137304286627        0.97515281447383
H           -2.32335327972004       -2.35000368230825        0.83754616813114
H           -3.95962316070005       -2.97018580627665        0.97709887123985
H           -3.41416862319048       -2.24026872619961       -0.53828241248632
H           -2.46661693192978       -0.67637661529766        2.70669094655379
H           -3.90547206588959        0.33955249588058        2.87613724427492
H           -4.01912315798783       -1.40801104955614        3.10518278923089
