87
 energy: -124.667279288136 gnorm: 0.000243866814 xtb: 6.5.1 (b24c23e)
Si          -0.20289569462085        0.86915641659682        0.98312752741528
O            0.23879017063463        2.05647929661678       -0.02950965485899
C            0.90239229070956        3.28010696069930        0.16197548526939
C            2.07612395940919        3.36957430389355       -0.78011783140630
H            1.24475632773314        3.35289414152499        1.20123538268054
C            1.99929258033065        2.80068534449491       -2.04425955243926
C            3.23414235976182        4.03554734034850       -0.40275433853739
C            3.06942849460958        2.88821304487166       -2.91629801934352
H            1.09997996957321        2.27462920165831       -2.32650744515910
C            4.30131282603913        4.12900252436903       -1.27846358580680
H            3.29915379546297        4.47399733471107        0.58259343336581
C            4.22209618466866        3.55419681960473       -2.53585001452520
H            3.00434871023992        2.43720659560680       -3.89623646062903
H            5.20006117394210        4.64719771175325       -0.97711990992718
H            5.05805132128572        3.62337994021054       -3.21666517038701
C           -0.07867819404052        4.43790993220846       -0.11822637978233
C           -1.17841878073893        4.41252274805568        0.82165928170784
H            0.46267822405294        5.38371910863995       -0.03388380318694
H           -0.46211552972202        4.33804339557805       -1.13727690080590
C           -2.07367865182324        4.34484910835693        1.61208504001527
H           -2.85773762109030        4.28885154856375        2.30603162840526
Cl           0.66807531439291        1.69184139292495        2.80005551220147
Cl          -2.10534141561791        0.83171541142972        1.84092904482990
O           -0.77175663976176        0.04735491937126       -0.51681195392478
O            0.78698060273060       -0.45104104880178        1.36842062042386
C           -1.36586898553072       -2.05973771758564        0.21791954186229
C           -0.01041527575403       -2.44851512048076        0.38510558919611
C            2.36060695038299       -1.95502258168949        0.53402594942095
C           -2.99364193821498       -0.59009757814091       -0.79510104550583
C           -4.05031353784392       -1.40018084472741       -0.39892822763704
C           -2.42212434986032       -2.92101944750787        0.56525003075359
C           -3.71462035877653       -2.57030745679540        0.32383307683433
C            0.33471490154474       -3.80776428624319        0.24975456672972
C            1.63165188032128       -4.18914713369370        0.11347462165831
C            2.69212996474771       -3.24195371749579        0.13326665295103
H           -2.19988800561079       -3.82557067403193        1.10625050019784
H           -4.48525625766626       -3.22845668594533        0.67972322603560
H           -0.45273752191182       -4.53757487208202        0.16493712714141
H            1.84224452458473       -5.23390874518830       -0.01991568927943
C            4.08885364120652       -3.71081630228856       -0.28563833441255
C            3.39631157022500       -0.93721030928729        0.95525294217666
N           -1.73275208608850       -0.88702630873352       -0.38808666125007
N            1.05094708940468       -1.59671548349799        0.65379830484737
C           -3.11107659222609        0.53454272935473       -1.80043436225154
C           -5.52962687363354       -1.09356577857391       -0.64957374474803
C           -6.43739916858360       -1.96987936747280        0.23096661369801
C           -5.85562628777671        0.36122744203386       -0.26602583711820
C           -5.91439734760894       -1.40285623859687       -2.10577850161454
H           -6.19161575077925       -1.85055130520536        1.28297105079858
H           -7.47032148792746       -1.65923736219852        0.08955756528609
H           -6.38115970255684       -3.02095127127105       -0.04139170789559
H           -6.92414458350937        0.46448857596102       -0.09061675037195
H           -5.33196184584270        0.62411183923177        0.64972228899459
H           -5.58579690688042        1.07682952082704       -1.03301142523518
H           -5.74895593747187       -2.45799882510190       -2.31487935943055
H           -6.96891381149667       -1.18385834254846       -2.25820635735616
H           -5.34277967410717       -0.82847697956667       -2.82746968353816
C            4.04612871206402       -5.12167824511811       -0.90078117700723
C            4.64608296570251       -2.80781497126476       -1.40051534786854
C            5.04520257573603       -3.80826625595889        0.91518644019353
H            3.32126818823536       -5.18161025045169       -1.70896730739474
H            5.02553283587992       -5.35132819647405       -1.31510290263965
H            3.82308530028481       -5.88169445624375       -0.15629176528710
H            4.58522444729892       -4.40445715960798        1.70057612204229
H            5.96506949284562       -4.30120956028555        0.60741945881581
H            5.31082978081231       -2.84584549337960        1.33703452252952
H            4.01513720061168       -2.89506990382034       -2.28281896386647
H            4.69561930246703       -1.75916908069083       -1.13526574131710
H            5.64933098715506       -3.13496413998641       -1.66547488910344
C           -2.18885251735989        0.24728491602340       -2.99431854341150
H           -4.12816765177621        0.50679786971634       -2.18294231155030
C           -2.86691618604791        1.94525693496567       -1.26005837162127
H           -2.38593569013743        0.97270392504523       -3.78042066020934
H           -1.14538368124011        0.32615875756081       -2.70640085550768
H           -2.37239768914168       -0.75083729026277       -3.39009140365637
H           -3.20390347544850        2.67234759101935       -1.99671507036104
H           -3.41121418228126        2.10820171472202       -0.33536390100684
H           -1.81496344105598        2.11069769842864       -1.06811406534720
C            3.27563053842169        0.41761841550161        0.25013893107477
C            3.40698139212750       -0.77711356401696        2.48246878700515
H            4.36501190655800       -1.34773305416491        0.68704673060940
H            2.59204136867958        1.07353595625948        0.77272058151836
H            4.24729051481270        0.90677911927738        0.22871109712495
H            2.93046819365068        0.30057925682142       -0.77475582744442
H            2.50974193486341       -0.28212276781931        2.83670849965525
H            3.49007525589893       -1.74892559046358        2.96548097942025
H            4.26319860745062       -0.17093604008880        2.76825705809839
