87
 energy: -124.660851978846 gnorm: 0.000484601872 xtb: 6.5.1 (b24c23e)
Si          -0.43033196546285        1.07269334903937        1.19169863516648
O            0.13054812201060        2.39934811651354        0.42901111002833
C            0.17888387955460        2.81580117018347       -0.92098174554339
C            1.45236090877991        2.30528620782045       -1.56050871075991
H           -0.67386086281902        2.38886473064478       -1.45875043890625
C            2.63225061676939        3.03889135869840       -1.55716259495447
C            1.45754312637600        1.04154379587134       -2.14030497297586
C            3.77673470070346        2.53282976027844       -2.15031415021961
H            2.66876973999426        4.01048392619715       -1.09101030866736
C            2.60367263638731        0.52685848315538       -2.71776745449531
H            0.55240136883090        0.45426858362479       -2.13763104924941
C            3.76591912188043        1.27937740943097       -2.73799540022327
H            4.68335664512623        3.12023829510447       -2.15006524500766
H            2.58613881672933       -0.45944639750063       -3.15931516830237
H            4.65747106819694        0.89290910871369       -3.21033096399283
C            0.06144857600661        4.34814591115713       -0.93755975265352
C           -1.28873192533985        4.76208143611044       -0.62035414578199
H            0.33840850306378        4.72319892326238       -1.92665510689947
H            0.73563094048894        4.76082216067984       -0.18395456620849
C           -2.41144483523235        5.07418255822171       -0.34958137412866
H           -3.38944236638584        5.36411005961188       -0.10670573198017
Cl           0.23536648395762        1.94406433219827        3.01751057999852
Cl          -2.24542925922814        0.49646914725172        2.11796802151822
O           -1.02598601213667        0.39860261959402       -0.37878760424604
O            0.67973397951666       -0.18092426923886        1.45130977058797
C           -0.98894126092672       -1.89729730569884       -0.15252073075127
C            0.43829262609158       -1.93172352624739       -0.11516369830965
C            2.61831122660114       -1.19159038932284        0.65298790250876
C           -3.06114449415058       -0.73767575653484       -0.59598184438970
C           -3.80605018239453       -1.88467122223383       -0.35502898229983
C           -1.71948051371662       -3.09356732281323       -0.08281054154876
C           -3.08117988865432       -3.07663424585865       -0.10762691963059
C            1.08944121761265       -2.97811411638670       -0.78828361416243
C            2.44605617265423       -3.05540553442217       -0.83687546310285
C            3.26766169733738       -2.13826649416293       -0.12654833014938
H           -1.18777165506328       -4.01394746195455        0.09501147575959
H           -3.59977990572191       -4.00570902860867        0.04019425206283
H            0.48632943848692       -3.68236658690509       -1.33817303434787
H            2.88381115756316       -3.84521958751983       -1.41743567214953
C            4.78873192597591       -2.30661305970288       -0.23785524051353
C            3.34236117663559       -0.34093266736384        1.67142786684569
N           -1.71827563727569       -0.76053319233714       -0.38764168746233
N            1.25845678969304       -1.06891915199916        0.58772655988578
C           -3.61887106054809        0.48159907194441       -1.29767357248544
C           -5.33498647534878       -1.93704467806760       -0.30801441256892
C           -5.90103548229145       -0.71805468717647        0.44494812630739
C           -5.92487023378015       -2.05554579383468       -1.72261715915436
C           -5.80921336985874       -3.17496467650194        0.47400893088309
H           -6.04967051795688        0.14463623849345       -0.19450789307682
H           -6.86903396684763       -0.96580702102051        0.87410635500047
H           -5.23212195257339       -0.43933628904164        1.25525425361260
H           -7.00888824376258       -2.12032159960382       -1.66168335642061
H           -5.67150712768882       -1.21027137428299       -2.35539213255185
H           -5.55313296736597       -2.95710934896737       -2.20580970319032
H           -5.34335828245935       -3.21270641291005        1.45531426711259
H           -6.88650876915287       -3.11656064357617        0.61164165474647
H           -5.60883050814200       -4.10073123221195       -0.05934606189618
C            5.16176341776158       -3.19192844905078       -1.44137115452809
C            5.50517845170151       -0.95927440009058       -0.46779566413957
C            5.32810241567874       -3.02488689735537        1.01082528384442
H            4.73811878448304       -2.79871577280780       -2.36243645456816
H            6.24444627075521       -3.20712183488773       -1.54576036557792
H            4.84560353760833       -4.22303465482558       -1.30700259809830
H            4.86766594399822       -4.00676078547732        1.10036482187363
H            6.40417122352644       -3.15678111863731        0.92125983458942
H            5.12579403936141       -2.47910037149284        1.92674215169334
H            4.84753991380431       -0.26255299323753       -0.97938097455210
H            5.84896939110840       -0.49813829624821        0.45198572381142
H            6.38441973008829       -1.10796749505163       -1.09023114094803
C           -2.88958083547421        0.64224434450953       -2.64039321819227
H           -4.65174999808176        0.24853591079356       -1.54332468610004
C           -3.63784192316902        1.79670172811579       -0.51855646264486
H           -3.35237034550168        1.44676274571310       -3.20721924951880
H           -1.84223758495982        0.88847611341289       -2.49866071074135
H           -2.95542908635774       -0.27604595598315       -3.22282396664981
H           -4.21167835775531        2.52977073168032       -1.08241474904304
H           -4.10079121591804        1.65820740902344        0.45307936449368
H           -2.64392769698370        2.19907706608171       -0.36556593323724
C            3.33805012413585        1.15649686169429        1.35732874711931
C            2.85170498222415       -0.61645689817508        3.10128855546147
H            4.37877978993596       -0.66147297325726        1.64662273583413
H            4.00530828591181        1.66140346762356        2.05167493866803
H            3.68857914515012        1.33679068986456        0.34418886937382
H            2.35464540071598        1.59267911484712        1.47072213850049
H            1.91847143591674       -0.10766788907553        3.31365837111278
H            2.71988662878439       -1.68535601999964        3.26098673159524
H            3.59890019078966       -0.25257505748311        3.80267183390829
