73
 energy: -114.125060265042 gnorm: 0.000497262681 xtb: 6.5.1 (b24c23e)
Si          -0.16822009514833        0.75332832531720        0.59131872786580
O            0.23873240161721        1.71576854396723       -0.64708318479924
C            0.44548788132646        3.10644494397926       -0.64116722794483
C           -0.82992439078096        3.85018211282041       -0.33725197172326
H            1.19331387583256        3.35273515556147        0.12246545223929
C           -2.04595614992074        3.34392930944999       -0.77227659987657
C           -0.80140107783987        5.04044266895094        0.37509917556082
C           -3.22242774364198        4.01255918980549       -0.48709212031655
H           -2.05755586519213        2.40699813992000       -1.30859814571376
C           -1.97771122841584        5.71413051874595        0.65043539301415
H            0.14261872494404        5.42868900641073        0.72810359047788
C           -3.19012920769799        5.20083906663649        0.22195766245097
H           -4.16890247717093        3.60441438536850       -0.81108760577062
H           -1.94928489511141        6.63624618977939        1.21213410928486
H           -4.10895765852792        5.72196561260100        0.44804743528845
C            0.97426191254078        3.50490992671698       -2.03136186918393
C            2.31850718817712        3.01692739346674       -2.24565088013113
H            0.96222701507946        4.59503612794232       -2.11532151357090
H            0.30774666693635        3.08119153115562       -2.78608725328146
C            3.43615825123580        2.61539347050160       -2.39286705824915
H            4.41380865467962        2.26808002971323       -2.54614506922741
Cl          -2.07353646450189        0.53132935702868        1.41072436476380
Cl           0.43879292980388        2.06968452755434        2.19658022916885
O           -0.55411048824958       -0.44539697453292       -0.72985264768661
O            0.96326439374048       -0.33900529009270        1.23840052915701
C           -0.29512223377834       -2.62864490351399        0.06882120771625
C            1.10959760235499       -2.45356039728431        0.16844600207430
C            3.00302913968985       -0.96501991230138        0.32674279137164
C           -2.44505003177722       -1.76967061656148       -0.56043304138072
C           -3.09680121839190       -2.94336552692516       -0.20473005115090
C           -0.92678592030437       -3.84821383359081        0.37178722735219
C           -2.28096592798134       -3.99285665202026        0.27031445360071
C            2.01616623161325       -3.49105432268376       -0.10576583875075
C            3.36009169755458       -3.25896288063596       -0.20151680898023
C            3.89353320204838       -1.95498476881859       -0.04589277511010
H           -0.32176402563859       -4.65614765871151        0.74974325220121
H           -2.72182046682972       -4.93050347171688        0.55889020095297
H            1.62312585068537       -4.47434575198013       -0.30840547125073
H            4.01100736443529       -4.08230854870919       -0.43549126429705
C            5.37003052760351       -1.65945123462756       -0.25491579722876
C            3.33823412148966        0.37820054128676        0.60734409837971
N           -1.10619637509775       -1.62341312952932       -0.39399071799160
N            1.67679472594465       -1.24186220942644        0.50021653095688
C           -3.07144726019488       -0.66742652125848       -1.18875997170885
C           -4.60600942528971       -3.08561895490131       -0.31152256712882
C           -5.03149649059554       -3.01100929384544       -1.78511576741621
C           -5.09875828703074       -4.42504770744041        0.24858715697393
C           -5.27465715090371       -1.96871469033590        0.50230398806858
H           -4.55444914665310       -3.80599800810246       -2.35521363921193
H           -6.10925418586594       -3.13211225126238       -1.86288879848722
H           -4.75878665645342       -2.05766685004129       -2.22507023384967
H           -6.18423506091761       -4.45456063150850        0.18759645467153
H           -4.71265381501136       -5.26493644768669       -0.32473955159727
H           -4.82134673783511       -4.54123109911411        1.29347039748307
H           -6.35626842592842       -2.06221180271992        0.43933549099501
H           -4.98066645154206       -2.04093397385195        1.54678998035525
H           -4.98919635506192       -0.98666605506127        0.14152335256203
C           -3.51553573929808        0.26328037744563       -1.80579122167103
H           -3.95593365512992        1.06909120414334       -2.31369414802962
C            3.48921218376646        1.53984315622401        0.87808817787478
H            3.67019492004359        2.54645335773477        1.11114899313548
C            5.52619055971928       -0.57188189215213       -1.32670256624060
C            5.98444187167444       -1.19044980939673        1.07218008869990
C            6.14674583727951       -2.89449661190963       -0.72437061137014
H            5.03567365390662        0.34607661759445       -1.01994228666572
H            6.58143841616141       -0.36538709505011       -1.49183567254119
H            5.08758996036526       -0.90425682364992       -2.26579279355432
H            5.50706790549722       -0.28171998074639        1.42532676339544
H            5.86835942576073       -1.95987800185699        1.83277774668031
H            7.04607166224450       -0.99513778409292        0.94029211600313
H            5.74987734331743       -3.27845224767047       -1.66138274815761
H            7.18539049281845       -2.61732420846415       -0.89029379809529
H            6.13116819382219       -3.68277496203382        0.02459014856662
