73
 energy: -114.125503483672 gnorm: 0.001000568229 xtb: 6.5.1 (b24c23e)
Si           0.02537442831175       -0.72887505617212        1.20946624521823
O           -0.15535265729725       -2.12406627600822        0.40774556352807
C            0.28514353020744       -2.58553010572994       -0.84206085856304
C            1.68331696454950       -3.14815824020715       -0.76920204237058
H            0.26244925052831       -1.76226747926217       -1.56509047486711
C            2.24187811864127       -3.52958094456053        0.44164996771366
C            2.40846185354302       -3.32916154469542       -1.94167643264742
C            3.51676534210260       -4.06832453257849        0.48262498749183
H            1.67636464295203       -3.39665892864641        1.35053901395447
C            3.67761291642089       -3.87835645343295       -1.90144925697481
H            1.97743066858907       -3.03111119006825       -2.88740001502306
C            4.23678783971535       -4.24542077743446       -0.68688533331382
H            3.94686349318906       -4.35264044248791        1.43130678107880
H            4.23464349609677       -4.01398385987678       -2.81769277242278
H            5.23103138215973       -4.66725458228107       -0.65473287943673
C           -0.68749977106393       -3.69940778907370       -1.28516116142263
C           -1.94077386330858       -3.16172238849279       -1.76311219461080
H           -0.22352643391726       -4.29165324749469       -2.07831709456604
H           -0.86939487250236       -4.34307860158424       -0.42126076285953
C           -2.95892876417732       -2.69157161013574       -2.17961424521168
H           -3.86162003178092       -2.30847424053474       -2.54990347495639
Cl           1.75564860585901       -0.03605192803009        2.13960466835535
Cl          -0.71901635269200       -1.65856460297337        2.95828916384648
O            0.51900280776143        0.12874479830843       -0.37718779880873
O           -1.23761170662054        0.39504761843155        1.37103803828040
C            0.02166556273352        2.41066853546225       -0.25936448699664
C           -1.37375872380400        2.15067362156086       -0.23346844941449
C           -3.21675042516861        0.64622772556478        0.19456578021204
C            2.28555808754958        1.62383946737533       -0.38672513847092
C            2.81114032430299        2.90882661399866       -0.34249067243663
C            0.53395545637329        3.72131952229357       -0.26184052405991
C            1.87735696660980        3.96425133773197       -0.28038431742763
C           -2.30052775739112        3.01784222698976       -0.83688358203839
C           -3.62618947763775        2.69996848172095       -0.93574608173620
C           -4.12214717927492        1.46173668024574       -0.45697393914897
H           -0.16129000024915        4.54106570982605       -0.18534559378334
H            2.21631014840042        4.98416906367656       -0.23950732260339
H           -1.93455062105508        3.93076345799636       -1.27814578919703
H           -4.28903849974470        3.39643341981451       -1.41721498108492
C           -5.57931984201674        1.06087545130341       -0.62422844969569
C           -3.50607248010893       -0.60579981691214        0.78064916453059
N            0.94758480727052        1.40032527367381       -0.33281150245789
N           -1.91230909018242        1.02810302563974        0.36095791186373
C            3.06086160588755        0.45066152237706       -0.53809356344410
C            4.30951004893082        3.16178151208421       -0.34348229211959
C            4.92142883147910        2.65404362669494       -1.65727834817177
C            4.64184034214614        4.65375467681876       -0.22359370906175
C            4.94091941831188        2.44668240608333        0.85944086275729
H            4.47073532290799        3.16694238356108       -2.50500874921919
H            5.99043617374287        2.85249538452905       -1.66529076216764
H            4.76898597085443        1.58654690557167       -1.77628928757796
H            5.72269550186171        4.77345627454043       -0.20699318673626
H            4.25927666180169        5.21772958184585       -1.07151072357234
H            4.24766423450980        5.07365664331809        0.69868598399021
H            6.01423096076471        2.62106914224772        0.87107120295176
H            4.51791558347726        2.82947821807470        1.78539037212438
H            4.76321146037354        1.37724579930200        0.82509447678435
C            3.64695185166578       -0.58394386225871       -0.71064376248089
H            4.19272358279365       -1.47150132680808       -0.83167039711906
C           -3.59493804816910       -1.67773704725534        1.31799898763146
H           -3.71105757995492       -2.60916749032709        1.78622373634116
C           -5.66286886323052       -0.25850469893500       -1.40282642201562
C           -6.22007196086994        0.89969170795541        0.76195234024575
C           -6.38436053784284        2.11205951066001       -1.39645694252260
H           -5.14927887599758       -1.05408330285102       -0.87180081782730
H           -6.70381527360566       -0.54567682875953       -1.53445048362720
H           -5.21242009955884       -0.13606641612838       -2.38647560576098
H           -5.72094593259897        0.12591962147742        1.33698888068796
H           -6.16000137798691        1.83474845873509        1.31511145792307
H           -7.26816383182614        0.62991088508801        0.65571511106921
H           -5.97801409882340        2.26970398799699       -2.39306637602381
H           -7.40865692384457        1.76276819115922       -1.50582562485736
H           -6.41321429107528        3.05995214025674       -0.86431501566774
