73
 energy: -114.127396252710 gnorm: 0.000692441089 xtb: 6.5.1 (b24c23e)
Si           0.23937570895733       -0.92863063409755        0.89278141501267
O           -0.52525032827773       -1.80747113700251       -0.22773005401533
C           -1.33898962441926       -2.94560845794698       -0.13809520163795
C           -2.71816714253938       -2.63389896093707       -0.66191761316750
H           -1.40653872848676       -3.26713325191736        0.90889060544103
C           -2.90270670279422       -1.62756403755190       -1.59982514368630
C           -3.81659315206608       -3.35755357854151       -0.21544363377903
C           -4.16909375227994       -1.34090666040730       -2.07744282413723
H           -2.04439064498725       -1.06645493440076       -1.93619173514171
C           -5.08208970871617       -3.07386174524331       -0.69794607669827
H           -3.67681653099798       -4.13744369696048        0.51978008732444
C           -5.26130427039803       -2.06304274933272       -1.62786507628115
H           -4.30526409774229       -0.55321408106373       -2.80431002340564
H           -5.93201217863365       -3.63932056078488       -0.34389384900185
H           -6.25028477049016       -1.83868473836479       -1.99991282394770
C           -0.68780684575196       -4.06873248016950       -0.97148202755227
C            0.59072452388541       -4.43237195742982       -0.40024426853769
H           -1.35226719854947       -4.93619716214232       -0.98899047084616
H           -0.54591847891880       -3.70375511952955       -1.99210217443418
C            1.64413086342083       -4.68307880688735        0.10872041072521
H            2.56518019149702       -4.91149011911958        0.55553234707669
Cl          -0.71319347987711       -1.76298432626304        2.63721134902847
Cl           2.14003351677214       -1.31913287138968        1.63222310992754
O            0.91091860452061       -0.07333789868314       -0.57401221109497
O           -0.35720706942582        0.56563759669115        1.45360147581190
C            1.62035825068792        2.07835271277639       -0.01700209389047
C            0.27707402419996        2.48547571757993        0.19070893329630
C           -2.03425979542197        1.87946662798101        0.54057911425291
C            3.17383817680402        0.37430948535091       -0.68825088166100
C            4.26828761782400        1.21703601721898       -0.54895364214718
C            2.71264520826109        2.95914142178103        0.09247665146129
C            3.99132188725934        2.53953272213722       -0.14227835991062
C           -0.17045231054631        3.77911754128412       -0.13036634479900
C           -1.50137621665882        4.08822581600003       -0.16609920702029
C           -2.49039141517146        3.10789460047426        0.10137097329881
H            2.52515004071370        3.96797554959170        0.42206186909263
H            4.79567052627887        3.24135600659539       -0.00876298061185
H            0.56080942547028        4.51577899725401       -0.42173547848055
H           -1.79304294698533        5.08627101233413       -0.44033476436119
C           -3.97388917101122        3.38761974799683       -0.07515137949840
C           -2.84986761612207        0.80115390943578        0.95073883853705
N            1.91581807619300        0.80025387305247       -0.41500819670231
N           -0.69692062356060        1.62317253625527        0.65431457363287
C            3.22249902109237       -0.95750409585525       -1.16429455185612
C            5.68294762245208        0.72872161593104       -0.80841621772039
C            5.82085116643306        0.30423559524570       -2.27777270402017
C            6.72802201275950        1.81608090502040       -0.53543903014661
C            5.98075279449532       -0.45477656125371        0.12279930231123
H            5.60589189479401        1.14501246078861       -2.93472257335845
H            6.83727987163266       -0.03057020288848       -2.47033105784709
H            5.14016880833654       -0.50613339967363       -2.51747128587202
H            7.71916138249026        1.40713203543673       -0.71775658652939
H            6.59543246713688        2.67077906110652       -1.19519607510686
H            6.69102553984768        2.14816144016844        0.49925563108011
H            6.99081644504570       -0.81802989738309       -0.05161308081280
H            5.89828538911125       -0.14327548453512        1.16147366029120
H            5.28415345001693       -1.27042778004394       -0.03982547592850
C            3.11996813439201       -2.07382168618863       -1.59712707848685
H            3.07261944856566       -3.06258591223845       -1.94462263573282
C           -3.42175768744507       -0.18467551005921        1.33303186242602
H           -3.95647737428132       -1.02614972235837        1.65899938219737
C           -4.56572767008503        2.37333757893822       -1.06480321413847
C           -4.68133351328215        3.28158855363575        1.28333135607449
C           -4.23337090565049        4.79147226148013       -0.63322535090747
H           -4.45573739177631        1.35568523888249       -0.70282655865149
H           -5.62469326867320        2.57408726761013       -1.20978552718690
H           -4.06543663404857        2.45517567419600       -2.02789532280295
H           -4.57332335890007        2.28729915092949        1.70498741674680
H           -4.26189056587813        4.00193616761285        1.98275274043603
H           -5.74132184926775        3.49373602289532        1.16544284347377
H           -3.74885953389028        4.92976977679993       -1.59710052478232
H           -5.30354560840431        4.92376573970803       -0.77520758247049
H           -3.89371192888884        5.56169178048329        0.05520002184167
