73
 energy: -114.130626658054 gnorm: 0.000810294228 xtb: 6.5.1 (b24c23e)
Si           0.02516694292696       -1.16598597111115       -0.23398476557857
O            1.46034269709117       -0.67781420511101        0.36968131661452
C            2.33288039026989       -1.33362489021387        1.25542135973347
C            3.03104304236487       -2.50412660481311        0.61312709667642
H            1.76145519647738       -1.68673118409602        2.12253385365281
C            3.25860058143424       -2.52510989219073       -0.75421400591724
C            3.47182645804048       -3.56382893515687        1.39407422055681
C            3.90560577671234       -3.59916171619112       -1.33840123495983
H            2.90166405930988       -1.70354390308830       -1.35653472234042
C            4.12767334831746       -4.63220903082383        0.81099765260607
H            3.28497184058119       -3.55679197735141        2.45817028034270
C            4.34421378274606       -4.65325972762648       -0.55664795870740
H            4.06234541002969       -3.61550983941752       -2.40700718300576
H            4.46173735820269       -5.45638707076918        1.42420582463931
H            4.84676514924590       -5.49386462352360       -1.01228912739275
C            3.37140051800448       -0.29395981287125        1.71928699069978
C            2.71779583429361        0.81629822923862        2.37576749005224
H            4.07261303792481       -0.77369030032696        2.40606048960643
H            3.91819732805721        0.06518562745173        0.84393818301603
C            2.12766699633753        1.71790985011974        2.89657570993242
H            1.62940603876994        2.50989682642762        3.37044713922856
Cl          -0.20817889995247       -2.03003215046725       -2.08067266998315
Cl          -0.11437253418502       -3.02508800168265        0.83834602316517
O           -1.28907040117609       -0.65380862342600        0.72594287274881
O           -0.07050803404016        0.40044200288216       -1.16096967897620
C           -2.03059230938278        1.57955109224142        0.37495387534861
C           -0.73150618300983        2.13702506040411        0.25511110930205
C            1.45910713626021        2.08366183287007       -0.72324025176221
C           -3.50332700220412       -0.31908378067206        0.12897078672301
C           -4.63465353552464        0.47479103652466        0.12099181108552
C           -3.17999339433183        2.38379093804370        0.47419149548348
C           -4.43628359349776        1.85661937637649        0.36628834029904
C           -0.38021923192565        3.36703666281456        0.84340770330168
C            0.85343715813133        3.92090551655061        0.65799682835901
C            1.82490454256954        3.29654101507836       -0.15466839097299
H           -3.05229868002225        3.45013859070562        0.56922241169469
H           -5.28103538146248        2.51934684197003        0.42814728971538
H           -1.10005455349829        3.84987901231772        1.48441717146055
H            1.07883609306243        4.85191313006754        1.14762677024463
C            3.17736874875248        3.93769135804342       -0.42144501383457
C            2.26664725397131        1.33296054930391       -1.60940888667923
N           -2.26493461405957        0.22016029334521        0.34149537534563
N            0.23332843458669        1.54279529270138       -0.51743327353229
C           -3.47719155809174       -1.72170428604450       -0.03907815664504
C           -6.01442373495401       -0.11038770422593       -0.13149716073974
C           -6.34575184549059       -1.13059687693277        0.96692222708817
C           -7.10788628549492        0.96331024595387       -0.12136503412314
C           -6.03332053559181       -0.78727689595307       -1.50914079353942
H           -6.32595141876361       -0.65176474286832        1.94360494969406
H           -7.34058102122252       -1.53833402827563        0.80420450357148
H           -5.63363927030748       -1.94951297529651        0.96909655512197
H           -8.06681478656010        0.49334721269273       -0.32758677916813
H           -7.17903337491945        1.44870605862111        0.84914634927361
H           -6.93278030534032        1.71359679522986       -0.88881934656801
H           -7.01985327525003       -1.20145273885757       -1.70359051747335
H           -5.80516160968111       -0.06227317535307       -2.28758961406502
H           -5.30615874389218       -1.59101101336965       -1.56279539159342
C           -3.28973162056216       -2.90215341439575       -0.16957471629528
H           -3.16107896598968       -3.93649874430490       -0.29032386834854
C            2.85394392050460        0.65068489961712       -2.40574058764087
H            3.40245837481099        0.07955406655541       -3.09492739988138
C            4.30528927688135        2.98382854684676       -0.00680699926038
C            3.28604655731194        4.27327523670368       -1.91682797227601
C            3.36232387264690        5.23955561756206        0.36632867812614
H            4.28608814140383        2.07493914105740       -0.59892838078876
H            5.26878395000250        3.46708633201896       -0.15211436210230
H            4.20203206873423        2.72024486843628        1.04366809488530
H            3.20509365110931        3.37896551064620       -2.52678149122578
H            2.49566077463110        4.96282047719390       -2.20691556311083
H            4.24467616094738        4.74439397032513       -2.12051601114653
H            3.30382352563915        5.06170479412318        1.43741866331644
H            4.34758422725925        5.64641498871446        0.15046763245705
H            2.62667104402525        5.98782293903542        0.08042418446492
