73
 energy: -114.127295418142 gnorm: 0.000699573402 xtb: 6.5.1 (b24c23e)
Si           0.20659432777238        0.92415814652618       -0.81540698799630
O           -0.44343672867339        1.85896289820329        0.33291506101985
C           -1.24789977927367        3.00655511784271        0.24881697919558
C           -2.66818211549341        2.68107687133137        0.63459060922811
H           -1.23138178830573        3.39300041461974       -0.77727514548337
C           -2.93332881497587        1.68044137463765        1.55905351235186
C           -3.72445143458030        3.38515376742116        0.07107632821635
C           -4.23783022437300        1.38204252830351        1.91108681660661
H           -2.10720756138776        1.13115445546232        1.98434678489137
C           -5.02860573449053        3.08917431776625        0.42705219227932
H           -3.52039617036401        4.15700361894542       -0.65698283676651
C           -5.28797164970849        2.08565870262104        1.34635417496948
H           -4.43686251056776        0.59923380123076        2.62875708510186
H           -5.84542261595520        3.63817780840863       -0.01900820336209
H           -6.30672942202762        1.85152358383624        1.61902550123141
C           -0.65990210026161        4.06719512907210        1.20117604729827
C            0.62869426030756        4.51396395135772        0.71889633765699
H           -1.34785355098924        4.91427361511228        1.26415104566840
H           -0.55018397680420        3.61877417819822        2.19176559282187
C            1.68912557719702        4.85035314076721        0.27786620065675
H            2.61695640308825        5.15292543470468       -0.10686224606185
Cl          -0.86077795263877        1.72966055446501       -2.50752842095269
Cl           2.05773590851632        1.33215054228745       -1.66465352912673
O            0.95677276640202        0.06764356451803        0.60897146399930
O           -0.42544526126538       -0.56825083613393       -1.33849753820249
C            1.69413551603427       -2.05215570383186       -0.02769733623059
C            0.35399632921439       -2.49750396862747       -0.16465602474426
C           -1.99443580841948       -1.98124455977048       -0.39141936376322
C            3.23423263298566       -0.31395485776105        0.58170180263548
C            4.34332270149059       -1.11355527939314        0.34118953702708
C            2.80381486223565       -2.89489299185987       -0.22690599796125
C            4.08154306311763       -2.43647539311051       -0.07342517306523
C           -0.02718447438998       -3.81331457018738        0.15309037369341
C           -1.34073935437522       -4.17647513815032        0.25205000493212
C           -2.38009522651464       -3.23409760074537        0.04579275512337
H            2.62701870210449       -3.90265618929558       -0.56551470777332
H            4.89683983643109       -3.10768340010778       -0.27879931760357
H            0.74661682661808       -4.52527256783500        0.39090243338789
H           -1.57814969259937       -5.18935147976649        0.52407803601681
C           -3.84183701040373       -3.58161288712575        0.27559608483049
C           -2.87212743036137       -0.93644474850603       -0.75839168333288
N            1.97515027258618       -0.77535756695682        0.38222268455138
N           -0.67501465336892       -1.66121351774029       -0.55152859945378
C            3.27150696493322        1.00335665818555        1.09661900174016
C            5.75553474313311       -0.57672463196796        0.49629599694460
C            6.00287419090370       -0.18452360922793        1.96006916277887
C            6.81302030451919       -1.61396297651055        0.10292173581454
C            5.92699224586079        0.64119850325745       -0.42248826401132
H            5.87902844115433       -1.04993087645082        2.60845901848971
H            7.01800843250608        0.18787279626768        2.07467682994560
H            5.31350917543161        0.59011096835499        2.27989015351916
H            7.80007638952777       -1.16942910944191        0.20749017595355
H            6.77328157014270       -2.48868068136680        0.74841033885076
H            6.69576250538297       -1.92264532684521       -0.93302903803405
H            6.93742310486863        1.03319542382126       -0.33326017528148
H            5.75478218224387        0.35608640388077       -1.45768136805371
H            5.22422712967434        1.42826645664088       -0.17050068664134
C            3.15956260797768        2.09762677425120        1.58017907225058
H            3.10247172277021        3.07119436507736        1.96697080717461
C           -3.49825287195028        0.02564844042841       -1.11617852532188
H           -4.08021289159014        0.84643842321107       -1.41307485672970
C           -4.44556689336048       -2.59928274532031        1.28983365977498
C           -4.60057886896607       -3.50359734937006       -1.05693225905179
C           -4.01591241209565       -4.99758443731912        0.83636524265733
H           -4.40128786003646       -1.57793287724008        0.92455174150463
H           -5.48669120906974       -2.85380323518338        1.47463873598060
H           -3.90542131709001       -2.65559295155504        2.23308432158098
H           -4.55655442557058       -2.50249211861917       -1.47428315624345
H           -4.16992907457278       -4.19773417141245       -1.77577916398648
H           -5.64393146902977       -3.76947602496618       -0.90456434248969
H           -3.48492608386317       -5.11785769418296        1.77795096737853
H           -5.07223097735177       -5.17727191101586        1.02305381124990
H           -3.67292730000814       -5.74989474611058        0.13005972875041
