73
 energy: -114.127081378078 gnorm: 0.000953908126 xtb: 6.5.1 (b24c23e)
Si           0.34724871190032       -0.48831271561126        1.36928151828006
O            0.78095882124169       -1.84046207306997        0.59154565793642
C            1.33068749442261       -2.08139213930407       -0.67866467394566
C            2.54198572630572       -2.97164432142100       -0.54909822600578
H            1.62559131646706       -1.13316369596013       -1.13846838376660
C            2.71638494964650       -3.78143554072686        0.56356294668525
C            3.49575830211954       -2.98573496821529       -1.55990044481249
C            3.83252323529068       -4.59378611627162        0.66416590189077
H            1.98114649715948       -3.75238692689254        1.35252725485217
C            4.60784550768923       -3.80180453640473       -1.45991383578739
H            3.36454880307511       -2.34991116092151       -2.42533791101129
C            4.77836212344865       -4.60788298757921       -0.34637179171728
H            3.96394923035564       -5.21649960790824        1.53643878417191
H            5.34594978395850       -3.80535683874296       -2.24927601407874
H            5.64960658186897       -5.24114379879768       -0.26661171156209
C            0.25568025123596       -2.75142610635389       -1.56186465777369
C           -0.71467584463798       -1.78297239540998       -2.01975714684694
H            0.73690847133276       -3.21954112662692       -2.42458717748386
H           -0.24127816734413       -3.52205362898065       -0.96763190700542
C           -1.48486152035363       -0.94894672880575       -2.39864849851957
H           -2.16571932255541       -0.22762458600413       -2.73992326340412
Cl           1.66401322775629        0.80562017343500        2.33169055625202
Cl          -0.04752040792357       -1.63312705244507        3.09780562616724
O            0.51376108513370        0.46746944288587       -0.21373361277585
O           -1.24637410442771        0.09226680616760        1.49006202993685
C           -0.73522600843442        2.43691265328885       -0.13694030664689
C           -1.94907868330173        1.70144506990385       -0.12604472771726
C           -3.11394867025875       -0.38754480079655        0.21172585627655
C            1.66399113115413        2.46445829181112       -0.26540008826166
C            1.72300936595584        3.85050781436417       -0.24702574810856
C           -0.69746663527773        3.84415712465579       -0.15497161472045
C            0.48527866820017        4.52640839410338       -0.18587481511570
C           -3.10884977157701        2.17605993115512       -0.76401727470813
C           -4.21100228552265        1.38534658405076       -0.93395818178249
C           -4.22132283926116        0.03629588746336       -0.49787411289946
H           -1.62931467331832        4.38118267655860       -0.08557741082206
H            0.45999053459996        5.60152721483199       -0.15935185071485
H           -3.09150988583961        3.16965622935607       -1.18250222045685
H           -5.06483364665312        1.79294774490888       -1.44549835148668
C           -5.38892938679629       -0.89426695270238       -0.78179603043802
C           -2.94511741428283       -1.66569508818206        0.78958815305068
N            0.48037807922679        1.80576305468538       -0.19566947876960
N           -2.06743964534531        0.45682065199334        0.45878730292114
C            2.77712433876549        1.60098321522655       -0.40891313456077
C            3.04944337477403        4.58925726375034       -0.27843122735086
C            3.77845759235601        4.28311083635712       -1.59501826668372
C            2.86543857856614        6.10806154378784       -0.18742905312595
C            3.89795854442687        4.14549298725584        0.92151772159316
H            3.17199655728983        4.59549436551177       -2.44325932107509
H            4.72059220534916        4.82485177297170       -1.62877156721156
H            3.98840191925913        3.22265758840656       -1.69058463620898
H            3.84354272599363        6.58343709131286       -0.19383079385801
H            2.30410355652706        6.49310608414767       -1.03594678983576
H            2.36523410757420        6.39009596316981        0.73584746373792
H            4.84802780179509        4.67458920423698        0.91901926062295
H            3.37860808549502        4.36961780308898        1.85041295656410
H            4.09485805544919        3.07884561270719        0.89542974056026
C            3.62035622808746        0.76137484527432       -0.57867463839300
H            4.39721164643566        0.06492515417591       -0.69312829183963
C           -2.66341045828990       -2.69249169000939        1.34820945300740
H           -2.45187462318944       -3.60696563069079        1.81715941809133
C           -4.89276035108946       -2.11367582317038       -1.57153393940140
C           -6.01461538098045       -1.34122888213881        0.54747086307777
C           -6.48387086317778       -0.21263804896715       -1.61014374443874
H           -4.11848152138327       -2.64629663128326       -1.02879685613886
H           -5.71957760836968       -2.79585982062131       -1.75426555119801
H           -4.48517217354286       -1.80427963445826       -2.53148590875041
H           -5.29832041115110       -1.88614796302725        1.15409826889237
H           -6.35833286297489       -0.47634549467159        1.11134551177133
H           -6.86784358691804       -1.98749637016458        0.35553286244500
H           -6.10263419563538        0.12638710199018       -2.57078854295942
H           -7.27909598192040       -0.92909288668989       -1.80269451740236
H           -6.91888628607222        0.62950359113360       -1.07694885897234
