73
 energy: -114.118592320695 gnorm: 0.000318382319 xtb: 6.5.1 (b24c23e)
Si           0.19599985516109       -0.75730905439470        0.30503579455536
O            1.49542396190898       -1.62348204018864       -0.20489563690780
C            1.72921646772234       -2.99910139164294       -0.33173503990046
C            3.15250171482532       -3.17899810383397       -0.79890904866170
H            1.03260286744785       -3.41008826333984       -1.07801881751894
C            4.18534291725516       -2.60711435701634       -0.06643592298049
C            3.45253451109772       -3.90884122183760       -1.93910474191377
C            5.49811705904664       -2.75789156671290       -0.47321804866322
H            3.94066696517485       -2.04268599401339        0.82080482425739
C            4.76790970204184       -4.06537325262106       -2.34280390855975
H            2.65307032383592       -4.35546489358768       -2.51282677204248
C            5.79240005757379       -3.48906977907066       -1.61259325988381
H            6.29837572766390       -2.31087210042552        0.10004242334908
H            4.99264098567863       -4.63612865202116       -3.23221186988887
H            6.81807226125387       -3.60855779730278       -1.93026503285036
C            1.52969140069387       -3.75611052541693        1.00211829392579
C            0.13690056976348       -4.05512400219992        1.24311654915821
H            2.09561352742993       -4.69139078185621        0.96137058905284
H            1.91694606038035       -3.13694368908727        1.81405163110259
C           -1.02367457587332       -4.30723066174720        1.38880227121506
H           -2.04023294343626       -4.53204993011884        1.51105681824521
Cl           0.82938540803724       -0.65166142627445        2.28721057101622
Cl          -1.21705268465059       -1.83816750726690       -0.84642568010084
O            0.64697172533448        0.53589734001854       -0.69601155453897
O           -1.16810278098690        0.26192164972715        1.01133301432617
C           -0.76562787900063        2.45064768649016       -0.60179131099339
C           -1.98883487199596        1.72665725312177       -0.60546520882228
C           -3.34600135685418       -0.03622639378362        0.29778128982081
C            1.59590858275156        2.56864494054496       -0.11157796698013
C            1.59768069204861        3.95089644015473       -0.13336785780167
C           -0.74344118350456        3.84649093025186       -0.75473564769337
C            0.39025848801189        4.57692952170420       -0.53205601409391
C           -3.09266028899530        2.10389526717138       -1.39105054438127
C           -4.26250269659004        1.39762967592032       -1.36101912314507
C           -4.43015815905425        0.28923149807541       -0.50442929043836
H           -1.67009689892554        4.34867203928843       -0.98180092670824
H            0.34438241768479        5.64639005480463       -0.63248623121983
H           -2.97777734081977        2.93265173411648       -2.07058607228808
H           -5.06314087905194        1.70044805574624       -2.01275475735257
C           -5.71350953987536       -0.52195480028838       -0.46732552374085
C           -3.33302642882969       -1.04158866118069        1.29307678160044
N            0.46460211961028        1.85447047011906       -0.39565934641933
N           -2.18234776810085        0.65571078689327        0.22467432972837
C            2.72572027618503        1.75813860938827        0.13731360628174
C            2.83206159678668        4.75434036452206        0.24350281584466
C            3.96142512332681        4.46372379307456       -0.75527836790481
C            2.56550047638181        6.26382018957512        0.22444838614007
C            3.26614366337196        4.37609471309909        1.66688835953045
H            3.65212069867043        4.73677438805619       -1.76219646280889
H            4.84190282784779        5.04683316939392       -0.49600789643724
H            4.22921468691596        3.41209346729817       -0.74930204217492
H            3.46517549956688        6.78561126130953        0.54266651762844
H            2.31793797459256        6.61205841701728       -0.77561467533152
H            1.76432665768315        6.53210176061928        0.90917025060698
H            4.14342054825289        4.95252371856467        1.95107022729363
H            2.46757154887723        4.59474046927678        2.37284847455430
H            3.50928354852919        3.32100900267583        1.73897628550639
C            3.62074669223435        0.97118841613794        0.29427021128910
H            4.43192062072929        0.32300725758105        0.44143066950846
C           -3.19436604371825       -1.80469393091440        2.21111698885504
H           -3.11384061934450       -2.49905414057161        2.99356330745400
C           -5.38652582575932       -1.98475603588068       -0.79896819861281
C           -6.35052995675990       -0.41649242236135        0.92589533844353
C           -6.73939604548861       -0.02586606284114       -1.49204957681391
H           -4.68667015971401       -2.40403217635937       -0.08377124455318
H           -6.29635339440337       -2.58049201730234       -0.78724501877217
H           -4.93820916887914       -2.05311527677311       -1.78749185660569
H           -5.68375449569046       -0.79855625704420        1.69229828707843
H           -6.58465777628919        0.62128339810922        1.15573327188112
H           -7.27341103630154       -0.99096533218646        0.95347635955432
H           -6.34669585735231       -0.08748603960271       -2.50414757862652
H           -7.62459756000454       -0.65564987579860       -1.43970648057517
H           -7.04722359308740        0.99665367495330       -1.28464298309297
