73
 energy: -114.130622393802 gnorm: 0.000903392209 xtb: 6.5.1 (b24c23e)
Si           0.22354140009854       -1.17236616885967       -0.40574086842054
O            1.56079025663641       -0.56485706918021        0.30429246050307
C            2.41648304262729       -1.14690314935375        1.25598618115385
C            3.28599850623980       -2.22401779601083        0.66151872728175
H            1.81225489739141       -1.57543761186913        2.06476069293733
C            3.65084968918675       -2.17379655666752       -0.67521363111419
C            3.74870467010244       -3.26349928122529        1.45675347418918
C            4.46054478965333       -3.15657197528293       -1.21561928990684
H            3.27380855908680       -1.36979984962650       -1.28932982032661
C            4.56519299842596       -4.24072298335159        0.91805064458653
H            3.45439078573133       -3.31310519333110        2.49525870314695
C            4.92224509016042       -4.18980807542948       -0.41919752544719
H            4.72774447866050       -3.11849364269420       -2.26173727876051
H            4.91618123068068       -5.05032075049550        1.54120362697759
H            5.55312472797674       -4.95872137935184       -0.84082459288035
C            3.29778374446115       -0.01654001836919        1.82180606969720
C            2.47874722311363        1.00369561269097        2.43749369550292
H            3.98634709127577       -0.43726971330994        2.55832145361716
H            3.87429219993828        0.41738869100853        1.00112424470647
C            1.75567664835120        1.82399051681803        2.92407864978290
H            1.14319999094019        2.55251729051161        3.36456424832614
Cl           0.19613043138269       -2.01104182486499       -2.27864631782468
Cl           0.19607070653414       -3.06418511532769        0.61840447134353
O           -1.19025917434173       -0.80926382328029        0.47731641523772
O            0.03702008782739        0.39771821964740       -1.30981377356857
C           -2.11943042998162        1.35148455870394        0.11672357869525
C           -0.87491470486076        2.03196426312434        0.08931796411288
C            1.36935966774467        2.20523429191326       -0.74279441109808
C           -3.38479991610211       -0.67244395977962       -0.25378409816663
C           -4.58382322630363        0.01147639261402       -0.32589581260374
C           -3.34502152829139        2.04057678355266        0.15662471189919
C           -4.53532392706398        1.39952375437596       -0.04302069374544
C           -0.68057932664074        3.27663766952743        0.71824817195737
C            0.50527793178243        3.94619128732891        0.62560797031747
C            1.58258098398261        3.43207462530100       -0.12863954437477
H           -3.32687456256434        3.11146225720154        0.28011098418956
H           -5.44242000294052        1.97701819317712       -0.02354494043335
H           -1.48322133919576        3.67668213458835        1.31655349749511
H            0.60961920706138        4.88304864056546        1.14390660634823
C            2.88562161271218        4.19871052185975       -0.28904843580944
C            2.29819722596692        1.55525962358051       -1.58890009623104
N           -2.21988957021098       -0.02313597792522        0.04627894131248
N            0.18905812583049        1.54849941910931       -0.62845268512389
C           -3.21512721650114       -2.06351933073052       -0.43406467446926
C           -5.88082817879690       -0.69511910461119       -0.68357048471070
C           -6.19207633998233       -1.76057452784078        0.37761728396360
C           -7.06827127755398        0.27238604870140       -0.74295510643957
C           -5.73694236469048       -1.34728597682455       -2.06635452631658
H           -6.29720345069598       -1.29714802246861        1.35672088290507
H           -7.12461006372738       -2.26360600982716        0.13326746139348
H           -5.40278758494185       -2.50401623444448        0.43001166956339
H           -7.96075145064697       -0.28020827322043       -1.02741531664122
H           -7.25703002085770        0.73028542080842        0.22533285609282
H           -6.90730871669617        1.05062318599222       -1.48550789318218
H           -6.66611987186293       -1.84140109012492       -2.34032196656930
H           -5.51487520191158       -0.59154846964758       -2.81734065559937
H           -4.94035614300688       -2.08457709121887       -2.07315225765864
C           -2.90909409230096       -3.21936813158255       -0.56302015854757
H           -2.67706605670862       -4.23585662364579       -0.67857405891993
C            2.99073862826665        0.94854952019532       -2.36151685839247
H            3.63292887259552        0.44966991095390       -3.02550340599509
C            4.06614199343610        3.33733751156757        0.17869369692968
C            3.05995588220800        4.58602765565191       -1.76561203899469
C            2.90066657779935        5.48768860383735        0.54036463666883
H            4.16547510200478        2.44516955393798       -0.43068489705500
H            4.98996171937712        3.90668123209982        0.10512658564002
H            3.92102693842860        3.04063337324925        1.21539197992457
H            3.09856033265992        3.70611704090709       -2.40032879904720
H            2.23123849552039        5.21172462861013       -2.09159017673660
H            3.98367599640714        5.14524765954252       -1.89408901486450
H            2.78515534097585        5.27299651200806        1.60006714600558
H            3.85845315045498        5.98466446706821        0.40431537797411
H            2.12290070767647        6.17773972943764        0.22147934359312
