73
 energy: -114.040550343039 gnorm: 0.000955144217 xtb: 6.5.1 (b24c23e)
Si          -0.10604570360537       -0.91879176472627        0.80923073133655
O            1.28628508186636       -1.90317940657590        0.34587600399326
C            1.72046554521163       -2.20594436901638       -0.80412748749278
C            3.00027116038361       -2.78329998880058       -1.00350859709264
H            1.08744752737933       -2.02166495342312       -1.67080027530526
C            3.85180697974418       -3.04350482150126        0.09037038447744
C            3.44794864779621       -3.10111179150198       -2.30071614260123
C            5.09621705658259       -3.59303704736739       -0.11391810998532
H            3.49804432416031       -2.79147466008700        1.07815047780344
C            4.69645655459169       -3.65030226334832       -2.48890024129026
H            2.79828222639344       -2.90644026232732       -3.14088494241174
C            5.52646240541570       -3.89858136613599       -1.40116629925982
H            5.74419389520460       -3.78974081320793        0.72773484864140
H            5.03513761126157       -3.89124877709606       -3.48609566189534
H            6.50395378594431       -4.33005888872286       -1.55624837748529
C            3.46694011224283       -0.39546855565111        2.53790116015160
C            2.22151948607910       -0.11418515785437        2.30446550431747
H            4.27306631945468        0.07785857298520        1.99964568606719
H            3.74685337310690       -1.10711043754167        3.29764075722301
C            0.98120848824888        0.11306192348519        2.03259947450653
H            0.45685398583334        0.89733838088276        2.56216872508088
Cl          -1.37367126062111       -1.89373546658465       -0.73096900296248
Cl          -0.65451925376799       -2.34664079676452        2.29785445792771
O           -1.47613347928309        0.26551791526184        1.22689176263365
O            0.28576581568258        0.26916242362389       -0.66004430372860
C           -2.08514235966636        1.66324127926406       -0.48876840467827
C           -0.79150480345295        2.30697053733706       -0.40114631310744
C            1.58868282098897        2.14495225903850       -0.33914649407362
C           -3.55413694703703       -0.05107388344472        0.26130304236144
C           -4.54419795022557        0.32597658474843       -0.64656341582262
C           -3.07849468899576        2.11419459319851       -1.35151899664269
C           -4.27958910287322        1.44865946182427       -1.44176003328435
C           -0.67264400992411        3.68757351856277       -0.30521263850264
C            0.55873939921215        4.28534956569679       -0.16010832305520
C            1.73443838524201        3.51561088381553       -0.15479897428572
H           -2.86766871611095        2.96003141140362       -1.98666415150572
H           -5.01077165801995        1.80010807919119       -2.14829957264760
H           -1.57345638268630        4.28080875626162       -0.29226570451437
H            0.60460135968011        5.35327654910736       -0.04613197397398
C            3.10467565423695        4.14806165463034        0.02672790890064
C            2.65303131138800        1.23285686089615       -0.51464241102988
N           -2.37736932177287        0.61650256147491        0.32401238183947
N            0.35722295776222        1.56882314086828       -0.44516331695094
C           -3.66934458960775       -1.08681963397193        1.21229548106956
C           -5.83964767748459       -0.45857494987580       -0.76156594117761
C           -6.60139095641835       -0.39515750320170        0.57010378092764
C           -6.75776985602797        0.09989043673488       -1.85459157728431
C           -5.50465158719220       -1.91223485896489       -1.12303444205790
H           -6.82961803204062        0.63807128833495        0.82602684119355
H           -7.53720608866927       -0.94171211775109        0.48306174135019
H           -6.02104172557381       -0.83312828477359        1.37569193516796
H           -7.65454124551332       -0.51290265583497       -1.90834661633345
H           -7.06640782756476        1.11974235164480       -1.63459990367660
H           -6.27595387182260        0.06900705271932       -2.82888945706981
H           -6.42074173326622       -2.49046979237480       -1.21651831560350
H           -4.97171279703056       -1.94880167368863       -2.07028825699522
H           -4.87754054802609       -2.37364901570228       -0.36767696179184
C           -3.62152537216394       -1.92052648923128        2.07700422831453
H           -3.59947084710839       -2.68045401347840        2.79979500285018
C            3.47930346643071        0.39364090817499       -0.75746376955173
H            4.23670729624182       -0.31002127591341       -0.93654387670140
C            3.81340203404630        3.48344586449302        1.21488192156626
C            3.92482483271128        3.96901328589766       -1.25909614183516
C            3.01355939923573        5.64998731685756        0.31944916710269
H            3.94022246131703        2.41841137070961        1.05411650205544
H            4.79369592832140        3.93170963932023        1.35799558823508
H            3.23392567046801        3.62378746125365        2.12477344608199
H            4.07470378065241        2.91868369013253       -1.48713400505733
H            3.41477992428142        4.43731774355711       -2.09871732968700
H            4.89792870276342        4.43984849342547       -1.14292329011458
H            2.42914272384886        5.84292888563056        1.21595449426145
H            4.01577141408070        6.03823629197403        0.48539507796231
H            2.58306748806059        6.19462474202442       -0.51772046487528
