79
 energy: -120.462898874124 gnorm: 0.000365678702 xtb: 6.5.1 (b24c23e)
Si          -0.12230750487245        1.10220472573833        0.81214952626486
O            0.83670600580543        1.78139899769119       -0.29864884288103
C            1.69141622599579        2.89210698017073       -0.23608469300931
C            3.06495967818372        2.50179604603277       -0.71799067571164
H            1.74824766362904        3.25217734999827        0.79849024249083
C            3.21076223330616        1.53985746568046       -1.70802407163484
C            4.19535443783601        3.11109257373919       -0.18962832071316
C            4.46998089551690        1.18812629188995       -2.15980199719805
H            2.32724595921683        1.06391813548429       -2.10531508304639
C            5.45457954720943        2.75898708814332       -0.64267329786307
H            4.08429103949272        3.85724114418064        0.58445075250614
C            5.59440103300805        1.79609079120246       -1.62800905383728
H            4.57655591325191        0.43928450725046       -2.93113935922584
H            6.32971837512284        3.23414324880595       -0.22347506227234
H            6.57764942779475        1.51916878864870       -1.97924040249368
C            1.11015479871863        4.00812757433188       -1.12888793899056
C           -0.17188796684069        4.44001199290398       -0.61628318510313
H            1.80887721296946        4.84825115994685       -1.15318601899381
H            0.98730066267922        3.61307976212692       -2.14078221828576
C           -1.23395103039685        4.74638259286427       -0.15825748441249
H           -2.16213878895950        5.01908268711990        0.24684588307049
Cl           0.83104388608228        1.94346047134424        2.56774897633854
Cl          -1.98842274862972        1.74889419293696        1.45662439783977
O           -0.84479677002842        0.26849042312539       -0.64800277293004
O            0.26358231654400       -0.42399571017287        1.47434196217688
C           -1.72213354128754       -1.76910569223866        0.08080976470019
C           -0.37468338036851       -2.26889522683092        0.12587309360464
C            1.95218968180426       -1.74611336973407        0.56864220678647
C           -3.14655430597911        0.01747553512242       -0.67474401414979
C           -4.29627644135228       -0.68506227943200       -0.34345014198860
C           -2.86181043225083       -2.47127309698498        0.50224447579271
C           -4.11025282352674       -1.92272603103504        0.29741390994884
C            0.03637790394581       -3.46658304325410       -0.47031671626701
C            1.38140019810080       -3.78868726308397       -0.50440433389338
C            2.38036757367347       -2.92714757588867       -0.00963979650693
H           -4.96159138623596       -2.46793695360042        0.66671380362446
H            1.66049187344893       -4.70541883194973       -0.99324816964121
C            3.85984233635558       -3.25787840138566       -0.12978813664773
C            2.78422900054172       -0.73492732535726        1.08992419269456
N           -1.92026221680047       -0.50954057635946       -0.43326102870206
N            0.61351841768444       -1.49114898516150        0.69571033289950
C           -3.10325622272248        1.28343111374168       -1.30266722787730
C           -5.67740336255692       -0.10898472978218       -0.60485328696030
C           -5.85691837750080        0.12714336008409       -2.11139990961817
C           -6.79497685579335       -1.05089801315055       -0.14385077960664
C           -5.82122583705908        1.21005890741466        0.16646563756146
H           -5.76309815984568       -0.81189192828636       -2.65393317612994
H           -6.84500951847452        0.53776600759808       -2.30498919548636
H           -5.11524945266834        0.82267945048055       -2.49056903609520
H           -7.75655949289160       -0.59941376496231       -0.37717574166316
H           -6.74348663330058       -2.00933766264250       -0.65597916128413
H           -6.75749402427132       -1.21217647471963        0.93064353555838
H           -6.81287885640313        1.62693489932091        0.00655929289197
H           -5.68272560959633        1.03779709469798        1.23114502069037
H           -5.08085211839444        1.93517566615638       -0.15424158272999
C           -2.92636011520422        2.32904671564653       -1.86833487230623
H           -2.81949448899329        3.26344530808439       -2.33273730567902
C            3.38361098718486        0.19558255014051        1.56099893982711
H            3.93612861398006        0.98876207940321        1.96753875359868
C            4.55104449995606       -2.19083103113657       -0.98964666261465
C            4.48530435353706       -3.30229629799400        1.27160651595752
C            4.09913335007964       -4.62037374029685       -0.79009177829020
H            4.45375401385383       -1.20311557099150       -0.54981236063419
H            5.60928211350425       -2.42221554142354       -1.08675942682479
H            4.11016483989620       -2.17067792504974       -1.98431297961751
H            4.39259543186040       -2.34459197836572        1.77353121359620
H            3.99462660531166       -4.06109354877478        1.87808812034183
H            5.54119386669665       -3.55165191719294        1.19733647191564
H            3.71839600716571       -4.64059768123727       -1.80859962569937
H            5.16948958162419       -4.80889370388174       -0.83258623581952
H            3.64204480524246       -5.42401433576254       -0.21743573281414
C           -0.92576402557127       -4.36627067330511       -1.18638019968982
H           -1.14763616014946       -5.24589544616659       -0.58397724222649
H           -1.85576943327950       -3.85537678956485       -1.41528759741153
H           -0.47796068001232       -4.70999462858879       -2.11670167554325
C           -2.74444777585581       -3.74672812220043        1.28098746992698
H           -3.32480104185130       -3.65809783093874        2.19791805833584
H           -3.14670120714576       -4.58751556921447        0.71815069938946
H           -1.71240558074117       -3.95527041115476        1.54485735868344
