79
 energy: -120.459104941405 gnorm: 0.000702094044 xtb: 6.5.1 (b24c23e)
Si           0.59971987025951       -0.53480953240141        0.49853976598710
O            1.44926457566079       -1.67152328426967        1.28616351639355
C            1.77677442660637       -2.99351439604264        0.94525862445658
C            2.86772363744735       -3.00795109747627       -0.09590141599231
H            0.88665276028753       -3.50456641115201        0.55896238242734
C            3.85801766480331       -2.03530659615123       -0.06761365773002
C            2.90104259165042       -3.98764310673659       -1.07783091000127
C            4.87088173838845       -2.04544238438008       -1.00934905232342
H            3.81839002400355       -1.26418646805997        0.68749128168419
C            3.91397347183151       -3.99431695533042       -2.02029753430832
H            2.12334066696789       -4.73679458262794       -1.11027024733137
C            4.90208514225180       -3.02498956864318       -1.98699432741247
H            5.64460329185793       -1.29141518762359       -0.97472872677837
H            3.92952646087500       -4.75566242684492       -2.78647009691864
H            5.69184972275411       -3.03115061340923       -2.72438665817197
C            2.26177815352426       -3.70225689162190        2.22390908026260
C            1.18383354152571       -3.89316751838847        3.16889730728900
H            2.68888683196119       -4.67108122826121        1.94988511509629
H            3.03821459542761       -3.08652887105251        2.68431661546577
C            0.28345625931034       -4.04957991178462        3.94178337359245
H           -0.49372074831174       -4.18139648001072        4.63455749243621
Cl           1.53926815187974        0.86134148086092        1.84214981311783
Cl          -0.10021760068449       -1.88512941589048       -1.07774112983360
O            0.59004891076350        0.59474170145401       -0.81853421449227
O           -0.91649421592097       -0.15499113823090        1.17796252008714
C           -0.97835177867092        2.22185734083008       -0.20976774274581
C           -2.02376534709822        1.22934311431007       -0.36739584703007
C           -2.84475243062838       -0.98532635396628        0.17318660968925
C            1.37009440840864        2.75612312842158       -0.43586512090708
C            1.16560327012910        4.06313083120400       -0.02650117310372
C           -1.20813708903045        3.52674781554989        0.22752016704079
C           -0.14937276274218        4.41537068792206        0.31856678392019
C           -3.11892310663791        1.39981731454049       -1.21560264794951
C           -4.05388084968316        0.38454396088945       -1.34305754339857
C           -3.94171336938449       -0.83736249532011       -0.65859227787754
H           -0.35749616060305        5.39709312480590        0.70653173720547
H           -4.86106256034495        0.53744640059260       -2.03778612580826
C           -4.94088102174425       -1.96605460559306       -0.84984365177000
C           -2.51381500750011       -2.13130842959011        0.92532204493444
N            0.31841079947111        1.89562179206350       -0.53639450705136
N           -1.96614397480463        0.04640145776545        0.33588496178477
C            2.60109454310280        2.18356052432818       -0.81894320938547
C            2.32329542849259        5.03912051047140        0.09408343431483
C            2.98044618448607        5.22672636327661       -1.28074369796971
C            1.87142240596726        6.41688054649388        0.58947769780601
C            3.33574284762477        4.48064323846770        1.10297302316474
H            2.26261255352303        5.63535123180314       -1.98969710938491
H            3.81453635105805        5.91959691451248       -1.19904204708553
H            3.35315384866907        4.28439782130977       -1.66923436379741
H            2.73546352430861        7.07554980092725        0.63992393803553
H            1.14922272108512        6.86636768781491       -0.08863966382628
H            1.44281571957745        6.35487830871308        1.58654073747972
H            4.14904744897066        5.18887746713571        1.24351857172342
H            2.85167957722967        4.30628443374175        2.06057116615790
H            3.74814725431836        3.53689472645791        0.76309624876858
C            3.56409141934407        1.57814946205541       -1.20957034310317
H            4.44088484248844        1.09376954698809       -1.52040188531529
C           -2.10788946474089       -3.02739179936551        1.61761371918813
H           -1.76773213318252       -3.83920287956360        2.18903788075682
C           -4.21286632710250       -3.17572367693572       -1.45161276180405
C           -5.56314051505826       -2.33308062286660        0.50482600814118
C           -6.08097159616475       -1.57833484481491       -1.79763767033929
H           -3.41613117460503       -3.51888703069245       -0.79978752598032
H           -4.91463971678860       -3.99211669397327       -1.60605444399561
H           -3.77277492839464       -2.90922615459160       -2.40977681886086
H           -4.80574199300087       -2.66436129621331        1.20795412544703
H           -6.07840134334214       -1.47285339170444        0.92826096662104
H           -6.28532339880782       -3.13540350290236        0.37354586009382
H           -5.70874863265388       -1.35951004676290       -2.79544911248948
H           -6.77315245187861       -2.41341268395963       -1.87822172733404
H           -6.63500850607137       -0.72091709986016       -1.42180010805163
C           -3.26307800666889        2.61397401152017       -2.08296593686405
H           -4.07981804597902        3.24028607947721       -1.72685880519715
H           -2.35176139607663        3.20313709596803       -2.10283347575727
H           -3.50213895208943        2.30697421883579       -3.09923720049758
C           -2.55756346789816        3.96697426129586        0.70929703320818
H           -2.45580380179341        4.42680163020340        1.69049090890362
H           -2.97900265866549        4.71304183838085        0.03714592487642
H           -3.24665710355957        3.13217880369220        0.78813507843184
