79
 energy: -120.465401326121 gnorm: 0.000675858510 xtb: 6.5.1 (b24c23e)
Si          -0.32852835014013       -1.60963683255831       -0.25615901757772
O            1.26773870400954       -1.43564604226851        0.01057570444725
C            2.21397458233720       -2.16458351270434        0.75079563846994
C            2.95741187073495       -1.19175578574793        1.64084664404139
H            1.68344687402428       -2.89496747668091        1.37973655947253
C            2.26285285609886       -0.10963311132518        2.17206401078881
C            4.30357620370399       -1.33355192678078        1.95437155548270
C            2.90081999569674        0.82208922597469        2.96878650928500
H            1.21002001435498       -0.00654942778745        1.96073457535377
C            4.94058275604675       -0.40521004434320        2.76135540685333
H            4.87150993009909       -2.16848710845138        1.57552454481197
C            4.24629580292315        0.68141251645808        3.26305293743785
H            2.34363126148900        1.65694428004120        3.36904047511890
H            5.98819612194502       -0.53108569829848        2.99376010977834
H            4.74857824271277        1.40789902173771        3.88518333842213
C            3.13019918142697       -2.93220249681626       -0.21972050590042
C            2.33565555972050       -3.69294435556557       -1.16159071648502
H            3.76310462879627       -3.61848047110745        0.34696887314591
H            3.75653047463370       -2.22069331602033       -0.76550070500981
C            1.64701091481073       -4.29486378949711       -1.93211025863444
H            1.03383837533985       -4.82312990123397       -2.59878626387494
Cl          -1.25486815987407       -2.53526960901211       -1.83354315835597
Cl          -0.64073352327374       -3.26004905352719        1.09565971032497
O           -1.22876522418723       -0.64241794199795        0.84472212548607
O           -0.23928893466008       -0.18298767396686       -1.39538177881235
C           -1.65215321132557        1.55614553692399        0.07664571774984
C           -0.23611052666813        1.75027698609144       -0.08986244540307
C            1.74100107813969        1.03096800930200       -1.25685053077366
C           -3.43884264516307       -0.05313666929445        0.39013227941988
C           -4.40814811343980        0.90014394601826        0.13445537542606
C           -2.61526437837225        2.53681423493704       -0.18261598932431
C           -3.95780724533751        2.20807979684392       -0.12980153026398
C            0.52078125900871        2.75302149127596        0.53389244117757
C            1.85673905046587        2.88781749854209        0.22106218771127
C            2.49759126379480        2.06364650413581       -0.72256912043623
H           -4.66824973346244        2.98040273948142       -0.36654722488211
H            2.41914401629364        3.64176268307763        0.74362320148712
C            3.94635717268200        2.28073713849150       -1.12746139868507
C            2.20108370131672        0.06177671215933       -2.17611839647063
N           -2.11880384494145        0.30463090018067        0.42592960851127
N            0.43284128974045        0.88886097349111       -0.92828786168586
C           -3.67137414916879       -1.41777069641255        0.65488213853760
C           -5.88390007678209        0.53545356829693        0.10546659088979
C           -6.29820031712216       -0.01785703962331        1.47646602517235
C           -6.77528086908146        1.74457067519702       -0.19898165625288
C           -6.12392720982777       -0.51375022805016       -0.98925333799516
H           -6.13265256842077        0.73013388677430        2.24959505124452
H           -7.35492666433401       -0.27409880009242        1.46704320208967
H           -5.73075189212447       -0.90802114472166        1.72839747913887
H           -7.81540386525500        1.42670191866661       -0.19273584854518
H           -6.66038834044633        2.52198677194784        0.55307109621074
H           -6.56097485660455        2.15748241557875       -1.18196749815170
H           -7.17957925622899       -0.77201275393989       -1.02812778807063
H           -5.82964142991368       -0.11855214145605       -1.95937685922897
H           -5.55402369773958       -1.41783920422746       -0.80057872380260
C           -3.72475369861148       -2.59576420136630        0.89381866709415
H           -3.79834088833448       -3.62308461846514        1.09347879304492
C            2.45716950578505       -0.80539046292894       -2.96804567732829
H            2.72606066703758       -1.56381850447832       -3.64106494526135
C            4.77561420883914        1.03605091764620       -0.78707563824109
C            4.00480095406786        2.56247499232698       -2.63645588048931
C            4.57694967929399        3.47290916407894       -0.40001459160315
H            4.72812605822788        0.83410095179421        0.28041911489032
H            4.40846388311777        0.16531055553900       -1.32040446954070
H            5.81511471465488        1.19740533850077       -1.06393043201866
H            3.60764204270460        1.72807949744784       -3.20654077346003
H            3.42711281688424        3.45311304345795       -2.87666362360730
H            5.03506475988011        2.72908909744551       -2.94208948528307
H            4.60525310400927        3.30619632875767        0.67427601332588
H            5.60133687739198        3.59614114033935       -0.74407645761389
H            4.04167963981551        4.39598252289298       -0.61097487803725
C           -0.06581356633262        3.60845002276332        1.61612109438519
H           -0.15343696728508        4.64344868738189        1.28940771993763
H           -1.04442112981710        3.24846074334670        1.91873751359859
H            0.59338518308295        3.59448328230652        2.48242166534393
C           -2.23675123648148        3.91482768154060       -0.63583272019172
H           -2.89288606012421        4.22333016133067       -1.44709746145472
H           -2.35815822861239        4.63091995046766        0.17567998537184
H           -1.20977041764385        3.95225852975766       -0.98564103172452
