79
 energy: -120.459982377261 gnorm: 0.000908312499 xtb: 6.5.1 (b24c23e)
Si           0.22085180606074       -0.84939053094049        0.06014860062061
O            0.96653753027768       -2.28249901664479        0.05769588499081
C            2.13999403958127       -2.76583018694343        0.65643390053325
C            3.31344200937983       -2.59085966532679       -0.27353805466968
H            2.33179881063594       -2.22556318472347        1.59042606389123
C            3.12654296509548       -2.59595879412444       -1.64896047971215
C            4.59502935694630       -2.43978227889670        0.24036931143203
C            4.20751497835395       -2.44924907941552       -2.50072995869523
H            2.12811605110515       -2.70035671444615       -2.04417539974178
C            5.67609985573742       -2.29884753857617       -0.61191989337514
H            4.74184495022962       -2.42440495897438        1.31074219568680
C            5.48466668871956       -2.30313850438798       -1.98472537027399
H            4.05206575059867       -2.44850538364297       -3.56975055917713
H            6.66992679162626       -2.17910041658140       -0.20478185106292
H            6.32919875588503       -2.18866454225491       -2.64944549543728
C            1.91613365081486       -4.25825616233234        0.96973767261121
C            0.96587233681985       -4.41122410054921        2.04948783884605
H            2.86961007991598       -4.71421095517051        1.24927984500177
H            1.53494854195867       -4.74556826967903        0.06901780692945
C            0.18689310047168       -4.48395115031002        2.95506686013186
H           -0.48907924136244       -4.56923880257304        3.75268857507131
Cl           1.44283058568785       -0.00103665004947        1.68430034414298
Cl          -1.02808085333787       -1.69812545807109       -1.49105358108535
O            0.49787753894132        0.46292003566785       -1.00327418917543
O           -1.09252971389233       -0.23108629977099        0.97197021328367
C           -0.76211585627366        2.24938240583901       -0.13340228348790
C           -1.97840299313261        1.48910124630966       -0.34902357360957
C           -3.23944688652623       -0.52296290805746        0.11900291849881
C            1.65582316032593        2.34177463598841       -0.25782088550040
C            1.68733602952417        3.61016922113613        0.29751363277302
C           -0.75536321498473        3.52792156965362        0.42643015866771
C            0.44865618239375        4.18288546782242        0.63043102166157
C           -3.03436220224378        1.93561473795912       -1.14418856264313
C           -4.17133710981441        1.15486010833091       -1.27654219106671
C           -4.31173630734048       -0.09063447404977       -0.64367174579458
H            0.41403015939174        5.14666980083943        1.10723112840398
H           -4.94537354990520        1.51331095252705       -1.93233206338709
C           -5.54449948746029       -0.95832904030480       -0.83055813200000
C           -3.14219252157967       -1.75516666209659        0.79788771790696
N            0.46088620226465        1.72496956246200       -0.49211786215738
N           -2.14766613667691        0.27669818849227        0.28083894070290
C            2.77632984523655        1.57933375309395       -0.64832234033953
C            3.00328378693106        4.31535634836900        0.58057942241224
C            3.78506036625965        4.49364034881300       -0.72847846713198
C            2.79694500628080        5.70498105735491        1.19332977415651
C            3.80942584617277        3.47263253838619        1.57843976815413
H            3.20770140596608        5.08782141324506       -1.43441829897197
H            4.72130226796978        5.01009402828722       -0.53040584079038
H            4.01124819905913        3.53546255843829       -1.18480668249656
H            3.76817337289148        6.16602172976310        1.35798609674446
H            2.22917815170290        6.35205270665582        0.52821955170029
H            2.29330142888055        5.64237713251507        2.15482367098251
H            4.75053377472402        3.96749229118084        1.80694469436275
H            3.24825539896746        3.34813807621250        2.50162827190674
H            4.02136524967854        2.48611415294482        1.17945760818386
C            3.64430133332589        0.83942093777962       -1.03071645876758
H            4.43823114638870        0.22051720527493       -1.32667456659696
C           -2.92146386128660       -2.76000552606345        1.42096635327966
H           -2.76973764997892       -3.66796160333852        1.92346893562090
C           -5.12756318573987       -2.26210906872187       -1.52439641265867
C           -6.17704479229917       -1.25428393405406        0.53664256491288
C           -6.60733015493895       -0.27710187740243       -1.69927806907187
H           -4.41548534125823       -2.81657294235064       -0.92273568454652
H           -6.00142891810706       -2.88573721499301       -1.69830778935575
H           -4.65693533238948       -2.04301547643074       -2.47961905492174
H           -5.48100300891350       -1.77417162648710        1.18696192321019
H           -6.48004860836734       -0.32765669269618        1.02087492749877
H           -7.05833947455287       -1.87807148422574        0.40751603243857
H           -6.23821129466552       -0.09829856713698       -2.70599950918297
H           -7.47352477739145       -0.93044902057587       -1.77536132627339
H           -6.93585286691899        0.66294539202354       -1.26118765864229
C           -2.01151483331707        4.18080548969317        0.91981530122029
H           -2.27476229845809        5.02526324301009        0.28437712905502
H           -2.84429736874516        3.48527601023049        0.94308176618207
H           -1.84908296784237        4.56343477952272        1.92557991501827
C           -2.93269758509793        3.19251858092174       -1.95480070807487
H           -3.20167272803709        2.97622840112230       -2.98699146814105
H           -3.62774787377744        3.94408286180730       -1.58319549419577
H           -1.92744649255715        3.60112079370695       -1.93747237663219
