79
 energy: -120.460299929709 gnorm: 0.000613406644 xtb: 6.5.1 (b24c23e)
Si          -0.16316458705863       -1.66526656336317       -0.52591377814286
O            1.42396702149108       -1.53128647591731       -0.20992661622370
C            2.39521813768009       -1.78972066120031        0.77740324191800
C            2.15323733499042       -0.92523547708118        1.99351005735202
H            3.33680707120953       -1.47585618221743        0.29983218230068
C            1.00258346768263       -1.06920676126969        2.75916399625716
C            3.07313118643243        0.05613089760242        2.34034614742649
C            0.77562795216224       -0.23585010365927        3.84029546790747
H            0.27663965496324       -1.82415083510983        2.50425555044317
C            2.85226613743008        0.88049839781884        3.42917959763325
H            3.97521797504690        0.17058706420042        1.75667583208221
C            1.69778262602025        0.73945954423428        4.18022653250895
H           -0.12535537513637       -0.35437850363814        4.42377602452125
H            3.58221788349045        1.63398600400709        3.69047024146981
H            1.52068603848770        1.38354032359246        5.03004420522924
C            2.52528402691984       -3.27662605665423        1.14560966050283
C            2.84582302655781       -4.05746165979012       -0.02913895364343
H            3.31923722944267       -3.37594213942769        1.89121516735203
H            1.58668368342555       -3.64027323698257        1.56530458384899
C            3.10454051493437       -4.65860247436333       -1.03060147561303
H            3.31561085276184       -5.21952117412391       -1.89105024718885
Cl          -0.80891109040261       -2.54547523899751       -2.25978519543083
Cl          -0.67589496370412       -3.37209336942191        0.68333724576521
O           -1.15099710720046       -0.77711046489037        0.56000444703734
O           -0.03818241063473       -0.15067783915090       -1.57350495056207
C           -1.36103874540883        1.53446170878737        0.06421548845346
C            0.06394742188045        1.64238567996737       -0.08088424070969
C            1.97921287408260        0.96850357810190       -1.36729942839187
C           -3.27328284680018        0.04124204127625        0.08035788385747
C           -4.16204998494991        1.09440663889195       -0.03118719442060
C           -2.24329172812246        2.61632139978495       -0.05107588682223
C           -3.60717837119793        2.38902481094072       -0.06582982391810
C            0.88884732782378        2.51530495310012        0.64689584604781
C            2.21648087745910        2.64087680414428        0.30056251567622
C            2.78956304301732        1.92071717582370       -0.76400847027103
H           -4.25155460032051        3.24263570661186       -0.18192787380970
H            2.82603506292650        3.30178551993832        0.89204292094479
C            4.21368446374035        2.16934964951954       -1.23651546374302
C            2.38652779918504        0.06153631187960       -2.37147592897376
N           -1.93278304070454        0.28637394741036        0.21178061798016
N            0.67496574365556        0.84754587452109       -1.02284335533001
C           -3.60729676270281       -1.32851957743999        0.08890276233278
C           -5.65941666437036        0.85656019172479       -0.14618086274225
C           -6.15083722405935        0.10457674630220        1.09910111796695
C           -6.44985827988388        2.16615193328598       -0.24288761789608
C           -5.94766596283780        0.03725168673156       -1.41198204310167
H           -5.94963633589215        0.68909205615014        1.99487012239188
H           -7.22332226087192       -0.06154622931461        1.03098406182445
H           -5.65931780793533       -0.85824490555004        1.19616375688839
H           -7.51099150532345        1.93486621806742       -0.30168151612824
H           -6.29305183771952        2.78950657650251        0.63455088056916
H           -6.18281938957182        2.72569558701955       -1.13636930514718
H           -7.01834377978826       -0.12607450924282       -1.51029080355442
H           -5.59836702268164        0.57141967314605       -2.29333377348814
H           -5.45323343326343       -0.92832711557307       -1.37669217159022
C           -3.74521837036703       -2.52371328091792        0.09839285872569
H           -3.89623398674909       -3.56201774669947        0.10058462925413
C            2.61039730301989       -0.75856158743924       -3.22079198191968
H            2.84761011803126       -1.46924017523498       -3.95498381250385
C            5.06959308596118        0.90534142008602       -1.08102480634895
C            4.16881898294607        2.59058214645375       -2.71373779215547
C            4.89232616081450        3.29534515019310       -0.44850558345452
H            4.62649872793097        0.06107231154685       -1.59968372664686
H            6.06183570939407        1.08068127335985       -1.49076407860314
H            5.17866898489506        0.64978084863227       -0.02937809117053
H            3.75255774898536        1.80170936652628       -3.33286451312795
H            3.55902569528843        3.48427081461190       -2.83278053487034
H            5.17343467336433        2.81171781020027       -3.06678748539908
H            4.99243165997479        3.03876796795358        0.60356615202060
H            5.89162636527626        3.45520151752893       -0.84717836130250
H            4.34215085487289        4.22906173118152       -0.54007733622475
C            0.38058342386458        3.22798910660371        1.86274399019787
H            0.40390527731739        4.30752295390618        1.72336388926450
H           -0.63054061215031        2.91939681678379        2.10832346770999
H            1.02727155834142        2.98658841825794        2.70512517903283
C           -1.75573643201593        4.01524371940787       -0.28155523305870
H           -2.38544390792898        4.50204544926462       -1.02351381538911
H           -1.81747266664856        4.59834292282199        0.63620318633357
H           -0.72885467077379        4.02751889826634       -0.63382038001163
