79
 energy: -120.465772945623 gnorm: 0.000734860695 xtb: 6.5.1 (b24c23e)
Si           0.16898933062545       -1.27122290081261       -0.11939774458647
O            1.61208878415998       -0.69931996707886        0.38218990877285
C            2.57414938074580       -1.29890463145044        1.21297830092938
C            3.25772369794966       -2.46358004604861        0.54460716310664
H            2.08584232458672       -1.64652533040852        2.13140408047177
C            3.37916210310562       -2.51060113196384       -0.83573328520892
C            3.78762452432261       -3.49249941934318        1.31108778661903
C            4.00916330133798       -3.58021641095123       -1.44571252468724
H            2.95295489433909       -1.71350791147860       -1.42589803705052
C            4.42638487121713       -4.55634378775548        0.70132266915686
H            3.68272319633410       -3.46574450859734        2.38604842796808
C            4.53675740199575       -4.60369649415798       -0.67827584297448
H            4.08227451573223       -3.61744077753167       -2.52280196507749
H            4.82978959794417       -5.35707780974270        1.30388311497760
H            5.02580696912711       -5.44115933588089       -1.15391615248257
C            3.60991038400381       -0.21499960053528        1.56652055966251
C            2.98795560796508        0.86274418253155        2.30258831132738
H            4.40345921332223       -0.66530311593194        2.16779428577115
H            4.03948373600231        0.16950891835027        0.63834443052602
C            2.42779505112442        1.73386151459606        2.90221498558560
H            1.95908220062107        2.50039346389740        3.44280182291549
Cl          -0.19194863470103       -2.28189894499379       -1.87280887687341
Cl           0.18145657800348       -3.06736477915089        1.08143829951218
O           -1.10405426252990       -0.71332098379423        0.87764797201074
O           -0.00788240764653        0.21180201793743       -1.16557272097890
C           -2.05110308933701        1.34457613632264        0.18306810944202
C           -0.74922070737293        1.95222142859621        0.20224689924365
C            1.44226466067494        1.98950723068634       -0.78522296146767
C           -3.32518690246276       -0.71851548072939        0.18649790110599
C           -4.50184943166879       -0.05387985307340       -0.10741500481170
C           -3.22830051362423        2.03669935856293       -0.13148391221274
C           -4.41998416478639        1.34567065701994       -0.24487505977174
C           -0.41312689780672        3.10322440550282        0.93448466067439
C            0.81273929530231        3.69867439966363        0.73690232780151
C            1.75562236064756        3.19970471843807       -0.18205749162481
H           -5.29671639250038        1.90780747262772       -0.51473999187662
H            1.04777696305975        4.56808456663328        1.32617416272553
C            3.03820109513377        3.95155830715741       -0.50147463611855
C            2.27855732175915        1.28697273418194       -1.68170957798694
N           -2.17180921961940       -0.01346429729288        0.39689061697254
N            0.23941752348993        1.40044651993131       -0.57833517829918
C           -3.17579206128610       -2.11400733031874        0.31762266614714
C           -5.80724944658877       -0.80801666860526       -0.30380418397216
C           -6.14087611030848       -1.58410918576669        0.97845534525061
C           -6.98161456275263        0.13151068964836       -0.59933009551877
C           -5.66420842917558       -1.77223591195464       -1.48963019158809
H           -6.24505257480383       -0.89794970574582        1.81685978282519
H           -7.07953944343221       -2.11859327050437        0.85321678646640
H           -5.36404175716076       -2.30418584678054        1.21484059219426
H           -7.88835843457837       -0.45945321148555       -0.70635434010782
H           -7.13824712140473        0.83779123660270        0.21291315750711
H           -6.82991930146297        0.67631742256689       -1.52818753874147
H           -6.59839680630604       -2.30658401173945       -1.64574019248426
H           -5.42700915469287       -1.22004082204614       -2.39670721250373
H           -4.87652114377224       -2.49778359393873       -1.31367641875190
C           -2.90314925089280       -3.27912135193059        0.44249120596146
H           -2.68931830977842       -4.30102274502641        0.54483600585341
C            2.90053672780502        0.63368614377078       -2.47633316498956
H            3.48153716337031        0.09295531925687       -3.16318919139518
C            4.26424116098804        3.09614832335511       -0.15856914384305
C            3.04065385127523        4.30531801189084       -1.99690706267966
C            3.15040985602811        5.25981055197116        0.28908062210265
H            4.29258422245539        2.19582858806738       -0.76334423427854
H            5.17301099629509        3.66378620440658       -0.34581125568683
H            4.23918278839248        2.81316647642947        0.89146041825762
H            2.99940738586095        3.41138508449459       -2.61163906475674
H            2.18379861024814        4.93159213688883       -2.23815519488914
H            3.94665855718898        4.85297767581376       -2.24562412384998
H            3.20458952005007        5.06878551046698        1.35805908791749
H            4.06431350808926        5.77250424761793       -0.00228088671847
H            2.31530788195504        5.92448472286461        0.07980586030806
C           -3.22275439837164        3.49716912963787       -0.47157600677370
H           -3.63490331545390        4.08349557475098        0.34834606870518
H           -2.22112209137584        3.85451281806642       -0.68885882863005
H           -3.85000187577673        3.66742594376402       -1.34442061097370
C           -1.32196259700781        3.63480634719383        2.00187948570768
H           -0.77087699430595        3.70453846319109        2.93841380133210
H           -1.67363750305904        4.63512262553509        1.75505429536533
H           -2.17678880683081        2.98377689365697        2.15526292804396
