79
 energy: -120.460114050361 gnorm: 0.000947912150 xtb: 6.5.1 (b24c23e)
Si           0.11425591391728       -0.87222821455344        1.21619451284040
O           -0.16040934245742       -2.26877562744246        0.44256168408566
C            0.23465479069706       -2.77382746951948       -0.80546378120876
C            1.65404303559352       -3.28577975160085       -0.78745381014140
H            0.13976134712263       -1.98817803694093       -1.56416045007775
C            2.28466169828537       -3.61662653319052        0.40247032120332
C            2.31980998030508       -3.48929596556542       -1.99098448376257
C            3.57146955538926       -4.12758760103863        0.39157682103424
H            1.76550978268190       -3.46983847131080        1.33647691390808
C            3.60005282549777       -4.01330242340434       -2.00240717373353
H            1.83193396489326       -3.23143445381863       -2.92080457714875
C            4.23085882154735       -4.33037121596608       -0.80892208329639
H            4.05730339338591       -4.37217371444677        1.32424530395411
H            4.10964593585484       -4.16909083239248       -2.94292719947678
H            5.23339768441770       -4.73352509403218       -0.81748323939581
C           -0.70919438108196       -3.95013139283029       -1.13669452942707
C           -2.00334981723062       -3.50441527219682       -1.59916188723878
H           -0.25020126544918       -4.57609597115305       -1.90678027566986
H           -0.82956572418159       -4.54035548713738       -0.22504831299121
C           -3.06253607456230       -3.13376884734799       -2.01367928725211
H           -4.00057961197867       -2.83231652890353       -2.37100058590636
Cl           1.90003337724969       -0.22376951810344        2.07114922185338
Cl          -0.55407318330496       -1.76771543325334        3.02215601871589
O            0.56858029385835       -0.05152882869536       -0.40291783783717
O           -1.10607443156219        0.29599333408283        1.42821667157698
C            0.08118116505375        2.22576023813819       -0.18585659002146
C           -1.31537941662410        1.90803476859898       -0.30568414405430
C           -3.12683927181114        0.40771411912371        0.28734122868147
C            2.34584704357521        1.44019487294345       -0.38082553044191
C            2.86361357299198        2.71325349036597       -0.18580995860622
C            0.57427309137366        3.51114051628389        0.08887445602892
C            1.93515536318558        3.72955906168673        0.09688319363510
C           -2.19557745479480        2.58103413600169       -1.16243228430391
C           -3.52340095381371        2.20074108499125       -1.22099088122605
C           -4.03040410575420        1.10661174303291       -0.49200219058924
H            2.28015493300103        4.71570537906728        0.35457416856874
H           -4.16471365706835        2.73610963494960       -1.89897835866631
C           -5.49424197638319        0.70101487491770       -0.56590604138334
C           -3.39277980609457       -0.77372216427110        1.00836557863500
N            1.00661405180321        1.22039291971159       -0.34783974944653
N           -1.84104826958423        0.86060469435976        0.42290257344310
C            3.11692077858299        0.28756145183476       -0.65033716235153
C            4.35972676762566        2.97808041221914       -0.21302111258472
C            4.92282331092217        2.60811357303686       -1.59280310731137
C            4.69069524824660        4.45326733187360        0.04101633598527
C            5.03663049893431        2.14920749925837        0.88728640736995
H            4.44633318154720        3.20757017407420       -2.36657184802246
H            5.99224529914714        2.80315196855241       -1.61817248188631
H            4.75982754159594        1.55904115263134       -1.81645522016210
H            5.76851052561287        4.58752227107918       -0.01518290238708
H            4.23502201065141        5.09820888044250       -0.70729097460682
H            4.37056754126517        4.76560213952249        1.03194672037513
H            6.10648992516762        2.34413523169830        0.89220994139716
H            4.62991655184698        2.41655840658480        1.85974791572510
H            4.87630062073702        1.08693984698356        0.73766799706324
C            3.69259588233497       -0.73193088466088       -0.92094489251828
H            4.23414990862620       -1.60709594227505       -1.12258324618980
C           -3.46685185397573       -1.78879855740840        1.64946392558356
H           -3.56452098501058       -2.67404814697350        2.20344314078825
C           -5.61012672163141       -0.69723561946367       -1.18484940711397
C           -6.08794335304518        0.70573108824939        0.85027327711275
C           -6.32162462725225        1.66789738245849       -1.42038468517930
H           -5.06244540703644       -1.42689076552667       -0.59582059645380
H           -6.65471561610537       -0.99782739031482       -1.22956832578400
H           -5.21039708461739       -0.68448456396889       -2.19736343145266
H           -5.57522809451690       -0.00182824416170        1.49412258320310
H           -6.00424332582322        1.69779794576000        1.28962624553306
H           -7.14060866276215        0.43548520045729        0.81095805002819
H           -5.99562650770141        1.66267259088464       -2.45798768410513
H           -7.36326026878601        1.35537849919743       -1.39953860557538
H           -6.26950368441570        2.68213931229866       -1.03132726459857
C           -1.72168719272165        3.64339171343235       -2.10918571479019
H           -2.09148338824537        4.62151199769988       -1.80623903061277
H           -0.63847845986680        3.67848501880848       -2.16550516337946
H           -2.11456496151592        3.43877684854107       -3.10366180903165
C           -0.33736010075781        4.62838137622410        0.49893260268445
H            0.03122147572760        5.06517093725803        1.42561674891593
H           -0.35001928046050        5.41628921442267       -0.25248891473983
H           -1.35136037027643        4.27754963012836        0.66246226420928
