71
 energy: -114.714657113770 gnorm: 0.000826958786 xtb: 6.5.1 (b24c23e)
Si           0.13196104797452       -0.71817056231993        0.21039428199305
O            1.15955095823558       -1.94958969256982        0.05797949529155
C            2.28512319073316       -2.38196068184892        0.78116483129352
C            3.41348503874637       -2.70820715538352       -0.16121704020669
H            2.60243518977481       -1.59473354796799        1.47402716555964
C            3.15645638952449       -3.11910993216572       -1.46109483488552
C            4.72657869090495       -2.63196574274698        0.28396080641534
C            4.20133077288922       -3.44507219721586       -2.30752543393645
H            2.13465011512782       -3.16743779476838       -1.80457121500467
C            5.76910174917415       -2.96686710482523       -0.56053734791683
H            4.92926791478614       -2.30351039056765        1.29341476310560
C            5.50849850964065       -3.37383257552582       -1.85833268602291
H            3.99351761977580       -3.75766128731878       -3.32061026862804
H            6.78806027725718       -2.90539102604408       -0.20686767188236
H            6.32391365204028       -3.63103837272648       -2.51881175872195
C            1.88191011786423       -3.63493362079046        1.58753174640685
C            0.75348847483758       -3.33244194756576        2.44137578777862
H            2.73610672184954       -3.96949026236148        2.18066844850151
H            1.59983141919681       -4.42523138668721        0.88622232799479
C           -0.20278589905598       -3.00914182436834        3.08416824251812
H           -1.05176327729996       -2.76649555757290        3.64978963965724
Cl           1.19587399588412        0.30970321384311        1.80072778114605
Cl          -1.17009183845963       -1.81705500284534       -1.10593189504912
O            0.34648420985208        0.49725401422874       -0.98433467126199
O           -1.24988785026964        0.02013698264601        1.00664966216848
C           -1.00310103262687        2.35982667219325       -0.46126459341244
C           -2.20545431855740        1.58113753347403       -0.45021783449836
C           -3.38516031639867       -0.40915848221770        0.19896261645881
C            1.40132214975952        2.48519617096422       -0.41314108049205
C            1.39554270514143        3.84579096925021       -0.16417736781970
C           -1.02484311072540        3.74940590796416       -0.31884665691827
C            0.13016464934221        4.47664114869523       -0.17264916422618
C           -3.36616186648755        1.99189716536528       -1.11221601425052
C           -4.48232044187759        1.19588402009707       -1.16271139837765
C           -4.51353409151772       -0.06388177043811       -0.52444427259279
H           -1.98339529167403        4.23879741824350       -0.24532282239148
H            0.05701821962190        5.53882074566834       -0.02295791683997
H           -3.34291616479469        2.92591830474999       -1.65124079193585
H           -5.33473317009844        1.53618865859626       -1.72312707073459
C           -5.69861513668675       -1.00452237128909       -0.63611912278892
C           -3.25904738327885       -1.55853974586302        1.01882442515033
N            0.24104591076817        1.79768045329231       -0.61712573621336
N           -2.30139651771046        0.41062920441851        0.25628410595606
C            2.56213832871564        1.68577090540451       -0.56070033909524
C            2.67923738815842        4.60514619112995        0.11583349588366
C            3.58109667804332        4.56368939835301       -1.12670922670337
C            2.41334003105558        6.07460991379766        0.46052707771745
C            3.38680724279845        3.95778058966327        1.31507614797660
H            3.06874451731122        5.00071276474579       -1.98192803170285
H            4.48627753017306        5.13592279198743       -0.93975431578507
H            3.86806208326784        3.54723426841362       -1.37627865366673
H            3.35914036718197        6.55926334858501        0.69013723513675
H            1.96438204751491        6.60590044765546       -0.37567480263254
H            1.77251831636045        6.16483095975060        1.33439817454627
H            3.65935462441532        2.92743443655894        1.11123885038139
H            4.29272040045606        4.51110720929909        1.54996855451967
H            2.73715242644237        3.96930488202333        2.18748820216215
N            3.47737387857818        1.02241833532545       -0.75569992002897
N           -3.15505632985140       -2.42235943943397        1.76576456142741
C           -5.20897262633487       -2.34361217870484       -1.20587999919831
C           -6.32993935017404       -1.20764352276946        0.74918413789955
C           -6.77953640699995       -0.45612352513621       -1.57374414870214
H           -4.48249761002650       -2.81528110621970       -0.55249994002650
H           -6.05048596703713       -3.02061994312586       -1.33021450016500
H           -4.73702245764549       -2.19090617647845       -2.17357919349149
H           -5.63228256714877       -1.66917529077119        1.44023088539137
H           -6.65164103030349       -0.25393056314930        1.16382843979103
H           -7.19908044804051       -1.85474978731400        0.66230812856315
H           -6.38565978185982       -0.28953905983792       -2.57336254633900
H           -7.58274250893839       -1.18494952025934       -1.64985992586366
H           -7.20730275932358        0.46850912280801       -1.19242380839998
