71
 energy: -114.720561415271 gnorm: 0.000986267112 xtb: 6.5.1 (b24c23e)
Si           0.27546556988494       -1.28436102296063       -0.34769798097493
O            1.57943733082195       -0.57990107802176        0.33534658683863
C            2.52223669385987       -1.15830473585463        1.21550660544972
C            3.33809215998104       -2.22887917834757        0.54042116417181
H            1.98197789998906       -1.59429384229708        2.06389048477709
C            3.77390863294294       -2.05866675786600       -0.76591319586020
C            3.65819600308875       -3.39519795580138        1.22141341567730
C            4.51378811690493       -3.04860611889217       -1.38747390157853
H            3.51624319367645       -1.15815217238338       -1.30396805174784
C            4.40396600761440       -4.38041392918758        0.60064477231854
H            3.30555812369856       -3.53698941358743        2.23210035270057
C            4.83160698459654       -4.20988700670119       -0.70530709275654
H            4.83757791893517       -2.91074562668978       -2.40815439024572
H            4.64178599354904       -5.28896951420111        1.13389208673502
H            5.40501748272254       -4.98526522303594       -1.19218852770449
C            3.43234895494889       -0.02354982824876        1.71717114405705
C            2.65341582314228        0.99258973013933        2.38901564553131
H            4.17009710709702       -0.44261139460123        2.40563002081454
H            3.95501304145507        0.41176371542382        0.86192353600624
C            1.96056466267793        1.81278249348965        2.91849827874421
H            1.37610886298632        2.53259129451941        3.40898209654686
Cl           0.28315841832697       -2.10575789233248       -2.20609852358241
Cl           0.24431650791154       -3.07608549438836        0.77116721506440
O           -1.19658959206977       -0.90207727652505        0.43782824468138
O            0.06681305375634        0.36275238967884       -1.29344842233804
C           -2.10713521893358        1.28167047543350        0.10142217829365
C           -0.86362763092674        1.96749886708790        0.10992611426852
C            1.37911577202278        2.15567451356592       -0.68647954711636
C           -3.36303462210185       -0.72261968140396       -0.36050307748255
C           -4.56285303498806       -0.04258026286017       -0.43297383170908
C           -3.33052373358027        1.96585541584731        0.14105826643380
C           -4.52075550507786        1.33477931788246       -0.10091464642328
C           -0.67616535724578        3.20122767145159        0.76087677081369
C            0.49945349641248        3.88944530456563        0.66933289296084
C            1.58158708318901        3.39290685690304       -0.08997029823819
H           -3.31541732006838        3.03166743204898        0.30225142317954
H           -5.42715459191561        1.91144596977106       -0.07747607291484
H           -1.48106721098828        3.58510439530821        1.36685787518366
H            0.59482093795942        4.82349685270934        1.19412617171474
C            2.86102660188857        4.18756633944151       -0.28646883163714
C            2.34279834171092        1.48348511245288       -1.48011937893454
N           -2.19436137430738       -0.09075177523048       -0.02343687329505
N            0.20291304165783        1.49013630019594       -0.60240322455017
C           -3.21529240239620       -2.11499789764009       -0.57382984996855
C           -5.85269036151462       -0.73198960550848       -0.84278850142359
C           -5.67730758745799       -1.34948505308261       -2.23771428051919
C           -6.19930942891639       -1.81942443032555        0.18516057689975
C           -7.03042533238733        0.24717862035667       -0.90896531741390
H           -4.90582316747381       -2.11227511874424       -2.24493066415992
H           -6.61030603929637       -1.80913543795278       -2.55419151672217
H           -5.41066234147930       -0.58050133463979       -2.96025259256939
H           -7.14272766689637       -2.28850309612625       -0.08270908370992
H           -5.43611213241429       -2.58993800705885        0.22299673310446
H           -6.30164725831592       -1.38288236480580        1.17684500992277
H           -6.84191064150435        1.04590869089445       -1.62273769718132
H           -7.91677893331334       -0.29015680888603       -1.23728710187643
H           -7.24728064097381        0.67578099951775        0.06672919520018
N           -3.07339012730500       -3.24094230432406       -0.73679536649404
N            3.10322792685615        0.93397571003954       -2.13811304333676
C            4.07568237426927        3.38361768497686        0.19591261094563
C            3.00605496522423        4.52033386694993       -1.78042432312573
C            2.83725061739657        5.50765395438747        0.49202189002654
H            4.23097062668551        2.49815185664599       -0.41119815563092
H            4.97011706206478        3.99807170726099        0.12736908704985
H            3.93894747673836        3.08072427328575        1.23187505545823
H            3.09196166851232        3.62016505718041       -2.38161991932338
H            2.14572472200955        5.08914168623469       -2.12852008322012
H            3.89960409646396        5.11932101034519       -1.93716026001214
H            2.75219616635356        5.33106674990656        1.56157325995223
H            3.77034992200200        6.03771327734487        0.31701176211774
H            2.02531080978357        6.15157304736032        0.16182610215971
