71
 energy: -114.718535434450 gnorm: 0.000985068404 xtb: 6.5.1 (b24c23e)
Si          -0.19419182149106        0.77178991479262        0.60402978567110
O            0.22786512175385        1.69897847498625       -0.64385764308677
C            0.39134523676132        3.10314548665779       -0.66765556670004
C           -0.89711568964704        3.79520507921506       -0.30648175452120
H            1.17575491754298        3.37543927602020        0.04914991160819
C           -2.10025422823291        3.31073297977196       -0.80270737154087
C           -0.89923148644100        4.90071250303069        0.53161571255486
C           -3.29311237481652        3.91731923763466       -0.45418570798334
H           -2.10360501112182        2.43968150482365       -1.44134595123409
C           -2.09288093866942        5.51143308336450        0.87245677486949
H            0.03427440402774        5.26938754905680        0.93028339638360
C           -3.29123987352208        5.01961747697672        0.38305000914955
H           -4.22313553931716        3.52162350703075       -0.83417167520134
H           -2.08786690095109        6.36578553840109        1.53315432273890
H           -4.22307212256913        5.49046032400378        0.66062275538514
C            0.82841662081074        3.48874708152571       -2.09029202679720
C            2.13642717250019        2.95991993109432       -2.40877014338119
H            0.84609346612714        4.57908669880222       -2.16745363825777
H            0.09395659184960        3.09286818846021       -2.79589169392794
C            3.21994480654848        2.51791096728782       -2.65821285563389
H            4.17198601208327        2.14449642995350       -2.89077606883744
Cl          -2.13981262731157        0.42726338291472        1.29324255406394
Cl           0.26073716313130        2.05641273909715        2.22871307374529
O           -0.47913696584959       -0.50055508003656       -0.75718156925757
O            0.95605902236895       -0.30969354498124        1.25682398438867
C           -0.23091988006370       -2.65668159069320        0.09096925166330
C            1.16867058377762       -2.44859751060877        0.22790415071277
C            2.99749464124454       -0.88058130399459        0.30936306265461
C           -2.36009715674435       -1.80649995028582       -0.58683463162036
C           -3.02868521665907       -2.96966271260679       -0.23372611455714
C           -0.87124969007444       -3.86785462432453        0.40403500415804
C           -2.22408103969923       -4.01430586935053        0.26987140470038
C            2.11324546451445       -3.45821405700858        0.01216990712620
C            3.45295984950801       -3.18094057524512       -0.07989856168481
C            3.93113133679583       -1.84915977492724       -0.00489664292224
H           -0.27639475044700       -4.66964267527314        0.81087228138507
H           -2.67497698099728       -4.94683628973929        0.56014224675966
H            1.76046907134730       -4.46469304922542       -0.14884859315016
H            4.13796966873190       -3.98919078355511       -0.26158699715858
C            5.38847844135426       -1.49918093431768       -0.25148881212457
C            3.27655048791398        0.49560872046112        0.48562008113705
N           -1.02401564428041       -1.66498173570880       -0.41728747577926
N            1.68259618431802       -1.20159631112680        0.51913840392742
C           -2.95526879482879       -0.69312905037760       -1.24034406433591
C           -4.53449396456180       -3.09229841304995       -0.37194978460738
C           -5.20057897706813       -1.95079343760666        0.40960417609581
C           -4.92063831648301       -3.02397311595048       -1.85704777776059
C           -5.05487126472997       -4.41840216385054        0.19317769040965
H           -4.91133077278698       -0.97824720658400        0.02525754593288
H           -6.28187055217121       -2.03949235103206        0.34001269435786
H           -4.91472657671919       -1.99497248501810        1.45801754042353
H           -5.99475133879062       -3.15423632107555       -1.96137880678040
H           -4.65104022994062       -2.06809404511114       -2.29419238792030
H           -4.42286451152369       -3.81487651296290       -2.41528948738400
H           -4.80145859147805       -4.52454544756361        1.24520974978470
H           -6.13867417712856       -4.43620196357183        0.10904057820770
H           -4.66634131999063       -5.26928805135168       -0.36204109984295
N           -3.38002035934687        0.17028744864021       -1.86266488790755
N            3.46780609062745        1.61625133840185        0.63709425624472
C            5.47859104877865       -0.48958162645188       -1.40477384662399
C            5.98817585174223       -0.89977023726234        1.02933977887470
C            6.21963238930943       -2.72866721609955       -0.63401662941590
H            4.97368548306609        0.43808364401108       -1.15550967244587
H            6.52192863893300       -0.26567651924047       -1.61500234633964
H            5.02564920369353       -0.90290141897458       -2.30429502949446
H            5.48863450990677        0.02257245330815        1.30860516306728
H            5.90043884304112       -1.60464941798533        1.85387235633779
H            7.04208703778777       -0.68229253027734        0.87423372140424
H            5.83841181763250       -3.19904124409405       -1.53742090114868
H            7.24308808750287       -2.41643492963206       -0.82762666917165
H            6.24423341943811       -3.45827388154507        0.17191656060481
