71
 energy: -114.664645623920 gnorm: 0.000835167159 xtb: 6.5.1 (b24c23e)
Si           0.00671300546726       -1.31002271806561        0.24487271960104
O            1.57395167032709       -0.96788775460853        0.64437564509210
C            2.68888499599246       -1.45968023791087        0.00371045486572
C            3.88520812870692       -1.53766271258401        0.91621673459932
H            2.49070723554026       -2.43269371452147       -0.46418272938552
C            3.82692436131845       -1.02705891144478        2.20472491977902
C            5.06955682366293       -2.08975743351965        0.44172455963015
C            4.94653953211476       -1.07595145690465        3.01688729536868
H            2.89848752076707       -0.61033808774685        2.56178720183786
C            6.18606178610593       -2.13073182613953        1.25564311953410
H            5.10838395804954       -2.48004323706529       -0.56421350122557
C            6.12668593002322       -1.62310638065646        2.54392810327800
H            4.89531284153632       -0.68502846593507        4.02203400153573
H            7.10447827518629       -2.56124088842098        0.88541274946033
H            6.99982523343999       -1.65742449972741        3.17828824607488
C           -1.68536465171151       -4.51781193445531       -1.21000921269896
C           -1.01531405907829       -3.41639870987156       -1.28444223941056
H           -1.20087988392046       -5.47081060795308       -1.07863495211211
H           -2.76099977546633       -4.52089232377789       -1.26847796872177
C           -0.35088100423630       -2.30103136950839       -1.31260344007472
H           -0.02295910987446       -1.88644005849109       -2.25497478649883
Cl          -3.05851158052508       -0.60548628048946       -1.96535924359746
Cl          -0.34151022518508       -2.64757689998111        1.77798665875310
O           -1.00788097931975       -0.13748234041954        0.90179870903455
O            0.24944790357053        0.30405737385458       -1.28650740360500
C           -1.62480661099768        1.88835465726533       -0.18360928702499
C           -0.22391690270476        2.29076871008438       -0.23997483107350
C            2.00796037885885        1.66430743854671       -0.72095934675365
C           -3.17174408127503        0.06962923106559       -0.04592812173831
C           -4.29383366575635        1.02958515473263       -0.03954777697808
C           -2.64148998920084        2.74018892389620       -0.49501572045652
C           -3.98082432776153        2.31839868700991       -0.32106700945590
C            0.22670463881777        3.51992096336179        0.20898999252810
C            1.58321601313642        3.84049511832944        0.15273080289268
C            2.50638197393704        2.92470322505392       -0.29957811248040
H           -2.42474877738431        3.73176210617897       -0.85297141763474
H           -4.74765684757975        3.06791296588112       -0.40840996942978
H           -0.48317688411547        4.21368837329964        0.62662133602459
H            1.89371695262797        4.81146119701790        0.49808294739750
C            4.00397350248558        3.16022789096918       -0.30515817602453
C            2.74087035867149        0.59117035913244       -1.15132154696085
N           -1.93935156648777        0.63207937537659        0.24335931370252
N            0.64955358445851        1.42114827662061       -0.77380440667079
C           -3.33030519508005       -1.22668894694294        0.55152518022827
C           -5.71109006058088        0.56122490434494        0.23819623405201
C           -6.08137950460665       -0.63652341529462       -0.64409133738867
C           -5.82158539109030        0.18404891065701        1.72478716673471
C           -6.73227709735819        1.67200303631023       -0.03858205913761
H           -5.45122017143982       -1.49585704085405       -0.44373945827272
H           -7.11415258407939       -0.92133559176689       -0.45616179126017
H           -5.97689969501221       -0.37351755395092       -1.69352093870623
H           -6.84361272821170       -0.11003028800456        1.95101936767341
H           -5.16701191532929       -0.64401000990357        1.97769761802472
H           -5.56085996673898        1.03578862330225        2.35059087214998
H           -6.67262714026774        2.00706370774480       -1.07097198551479
H           -7.73306565939885        1.28261355275718        0.13198866701275
H           -6.58941188716334        2.52039062734357        0.62630399511586
N           -3.41918948301774       -2.28102446350041        0.98552922758335
N            3.05401709977056       -0.57525025792146       -1.12213325675455
C            4.63620303365064        2.26233094669601        0.76940396253216
C            4.58258080556121        2.80700162291509       -1.68127779823977
C            4.35391494530272        4.61854213358903        0.00480346531754
H            4.46673437477694        1.21050052948495        0.55524039504630
H            5.70935839399768        2.43213870516646        0.81107457545220
H            4.21409653440483        2.48374198344925        1.74733116808180
H            4.38654933164563        1.76371842241757       -1.92769611173077
H            4.14100109728842        3.43432751645972       -2.45302754539971
H            5.65870323921379        2.96064521560697       -1.68227010014247
H            4.05611245694882        4.89013482774026        1.01445066533846
H            5.43027861834341        4.75256774876129       -0.07102244858567
H            3.87896386624124        5.29367637592166       -0.70338204018830
