71
 energy: -114.720673958131 gnorm: 0.000452759502 xtb: 6.5.1 (b24c23e)
Si          -0.58573146658988       -1.21856016820851        1.00873758306789
O            0.86163898147787       -0.77317803367173        0.47876480938858
C            2.04203564634712       -1.43333506580107        0.03694340182564
C            1.73927069031949       -2.37471104321169       -1.10019447846738
H            2.68305742479515       -0.62142676404791       -0.32971235911003
C            1.08209514304869       -3.57948191276338       -0.87969870423826
C            2.06966262939207       -2.00859407643806       -2.39895559015757
C            0.76892916344349       -4.40795999620291       -1.94215719966047
H            0.79911857659305       -3.87335522071009        0.12094752098496
C            1.75725867984477       -2.84045622804524       -3.45985500615674
H            2.56336651352738       -1.06642224513455       -2.58561261091918
C            1.10791685345412       -4.04151077135112       -3.23364563002796
H            0.25515927743903       -5.33972080383154       -1.75870568316395
H            2.01716307093742       -2.54269052203444       -4.46408738552103
H            0.86079931379789       -4.68923347743661       -4.06143851428926
C            2.74597595326788       -2.11935814688516        1.21624106491758
C            2.96743514202056       -1.18223601534891        2.29702659149503
H            3.69964810341559       -2.52078601523890        0.86419953234573
H            2.13286461985278       -2.94039005929436        1.59263999741409
C            3.11002766855750       -0.39010803126533        3.18220399939396
H            3.24653570076553        0.27622477510945        3.98049892683091
Cl          -1.76579990795523       -1.85537191202741       -0.49882040555291
Cl          -0.53399529473699       -2.47574861837974        2.55699188070905
O           -1.22576134699699        0.14602643788735        1.65157791115165
O            0.65373940893165        1.48459626297125       -2.15752274974950
C           -1.26030500012390        1.65746546016017       -0.19370598158875
C            0.13812352535689        1.95163002927944        0.02662114552709
C            2.35798988899524        2.02949265792592       -0.77438353305661
C           -3.30782595987264        0.87224877757900        0.81320063582133
C           -4.02292779337101        1.08948573348648       -0.35963423584948
C           -1.95479597153963        1.87471682013051       -1.36035547460652
C           -3.31259697822699        1.58313950477237       -1.45618886441141
C            0.61939553139898        2.31093731099615        1.28135762225100
C            1.95834558204055        2.54962198889497        1.50153548756582
C            2.87908731619505        2.40815758525001        0.46649966616656
H           -1.43030544730861        2.27588398971683       -2.21168963333214
H           -3.80120155163713        1.75031762411975       -2.39818513937669
H           -0.08875777909344        2.41322625726059        2.08783980964089
H            2.27513320722738        2.84284931176543        2.48568538104636
C            4.36787891757369        2.64487752935139        0.65330671588942
C            3.13913079036637        1.77355020661277       -1.92826213575098
N           -1.93912161963937        1.13465534123088        0.89896918379464
N            1.02716090000686        1.82154247534603       -1.00312421345647
C           -3.83122961378285        0.36460079809735        2.01105569451127
C           -5.50833420622223        0.77596095757851       -0.42924005880798
C           -5.71189590939422       -0.72339943725298       -0.16654452171424
C           -6.25995156601573        1.61096903198686        0.61682026891805
C           -6.10001083761763        1.10030930461011       -1.80502998744135
H           -5.40900179074818       -0.99450143151014        0.84016362448055
H           -6.76174533254427       -0.97958437853254       -0.28674752292593
H           -5.12800709086110       -1.31162992955550       -0.87177302030033
H           -7.32738950799943        1.41755920174289        0.54258752521850
H           -5.94120856248590        1.36708520019373        1.62539344807998
H           -6.08983187573151        2.67248612793861        0.44608380724267
H           -5.63426531178601        0.50356710263559       -2.58541979240315
H           -7.16242246510915        0.86770808540319       -1.79747824104249
H           -5.99134132610372        2.15599377627872       -2.04314650576968
N           -4.19104329675247       -0.05433613437434        3.02175045538751
N            3.73731655060866        1.51898292417687       -2.87332951925861
C            5.12852608146220        1.33678203141011        0.38905690531421
C            4.83654057106610        3.74465242992897       -0.31107864596849
C            4.69862653405422        3.09811626163014        2.07878059055445
H            5.01132218081478        1.00672831884175       -0.63865365578227
H            6.18926816705965        1.48706823552567        0.57453707029933
H            4.76807346687455        0.55455476333493        1.05524705164612
H            4.69752036480909        3.45594203688798       -1.34825589197579
H            4.28476086572809        4.66544070314540       -0.13041888925805
H            5.89420785403565        3.94250355351667       -0.15515012016893
H            4.43393104915283        2.33211022246279        2.80238465906339
H            5.76919604990669        3.27273990691342        2.15599451562550
H            4.19033485427678        4.02681938446899        2.32784841775061
