71
 energy: -114.715449717211 gnorm: 0.000999778038 xtb: 6.5.1 (b24c23e)
Si           0.30223905038213       -0.52152925748094        0.52231365960385
O            1.37178063587317       -1.64960807770928        0.92488020974221
C            1.63353392396536       -2.97580506509795        0.53216842812165
C            2.88968524462307       -3.04267733717167       -0.29883638013690
H            0.78817183876593       -3.36359006572707       -0.04856260881119
C            3.84290158277513       -2.03695672791085       -0.23945283932954
C            3.10663645058641       -4.14180791113863       -1.12118820438878
C            4.99521860088870       -2.12455895091893       -1.00086252720053
H            3.67225652987297       -1.17761895913565        0.38977515337877
C            4.26427562717693       -4.23327300110484       -1.87178352032524
H            2.36127297816285       -4.92318008117917       -1.17565167322114
C            5.21059729902235       -3.22315135069602       -1.81429271840820
H            5.72256711319944       -1.32832837793778       -0.95614663274905
H            4.42487540122325       -5.09199636832830       -2.50780548729688
H            6.11162181414205       -3.29315170048381       -2.40646506636369
C            1.77908254490129       -3.81607817105203        1.81520039271694
C            0.50595367408621       -3.88450031853676        2.50037955095885
H            2.11940239990148       -4.82025377478042        1.55051568217596
H            2.52516300985524       -3.34238533213559        2.45802428304926
C           -0.57729312523046       -3.89967682850496        3.00774382953099
H           -1.52394202991956       -3.91193602808569        3.45821568081362
Cl           1.27323827152831        0.74343357966814        1.96515602886653
Cl          -0.85058555763828       -1.79773140681251       -0.85142664720628
O            0.53701974297000        0.55083625824303       -0.80458139543939
O           -1.16251274041701        0.17007612282848        1.14391457287249
C           -0.87999628121582        2.40528955776879       -0.50134477543801
C           -2.06051735910149        1.59184150701540       -0.49233413944692
C           -3.23544404158009       -0.37527447894702        0.23725424442806
C            1.51191555159646        2.61617198512504       -0.37559891605276
C            1.45202245892551        3.98886645561453       -0.20969778776527
C           -0.95431831724627        3.79903806913351       -0.45193512202893
C            0.16969208546963        4.57345476790912       -0.30586655675991
C           -3.18910457350193        1.92266570425158       -1.24597677450779
C           -4.28642987369321        1.09995547206721       -1.29778727143381
C           -4.32935035297423       -0.10872073107459       -0.56771338427194
H           -1.93035535535393        4.25828110403279       -0.44633972600409
H            0.05567661795136        5.63952467677581       -0.22514118322505
H           -3.15293270622335        2.81365765464244       -1.85285466011287
H           -5.11076924005518        1.37678674067632       -1.93011143386435
C           -5.49765403584001       -1.07276830620802       -0.66219376472868
C           -3.13023835826679       -1.47038003247471        1.12933891394946
N            0.38434547692229        1.87759575090280       -0.57724827685750
N           -2.16993984612084        0.47149175718414        0.29166219367096
C            2.70574808748200        1.85773691777655       -0.44799088745060
C            2.69596935949851        4.80636832272497        0.08440894312633
C            3.37244688400349        4.23760320545555        1.34009652061242
C            3.65106095073976        4.74523413720625       -1.11668629449840
C            2.36349070672315        6.27828101889582        0.35255638663018
H            3.70115596468827        3.21482532885102        1.19015955753921
H            4.23841760203579        4.84265467154148        1.59704972123332
H            2.67964513917866        4.24585856778547        2.17834361850704
H            4.52868531228488        5.35433023543908       -0.91545075878590
H            3.98020265508933        3.72972779105155       -1.31156739880956
H            3.16299058692674        5.13044979163931       -2.01018894317006
H            1.68273476485840        6.38011321487631        1.19429981477278
H            3.28049401476133        6.80722309260800        0.60006392853071
H            1.93261411579718        6.75749782465374       -0.52376174740509
N            3.65427918420309        1.23119060227536       -0.60043929692462
N           -3.04822343333783       -2.29919702467648        1.91760530439593
C           -4.97423099023039       -2.44828498774573       -1.10002720464074
C           -6.19186173422846       -1.17040892929622        0.70454971927497
C           -6.53811731877535       -0.61408000439461       -1.68977000156428
H           -4.28489227330542       -2.86515092238494       -0.37328829719140
H           -5.80615836042980       -3.13834473105921       -1.21714190158633
H           -4.45278642947180       -2.36774831083856       -2.05113184933149
H           -5.52226126863235       -1.55982381569072        1.46450348600946
H           -6.54501726162081       -0.19068437311218        1.02122457534265
H           -7.04751380814494       -1.83689370702328        0.63228791032821
H           -6.10001127144191       -0.52362326486303       -2.68089203117301
H           -7.33114687112192       -1.35593882090139       -1.74325913688193
H           -6.99055643794902        0.33305264593472       -1.40425808729832
