71
 energy: -114.717386351933 gnorm: 0.000614818969 xtb: 6.5.1 (b24c23e)
Si           0.40062155519125        1.57828021131438       -0.28729935765377
O           -1.18227584892625        1.34338135090579        0.02108663323152
C           -2.11968925179344        2.08200249353010        0.77466310653067
C           -2.89588524798429        1.09959857840794        1.62529195498375
H           -1.57011985869824        2.77070714982810        1.43321669567281
C           -2.23265007298725       -0.01558542322515        2.12869563868865
C           -4.23964961823539        1.26531312698777        1.93727466930932
C           -2.89611635503472       -0.95533860797790        2.89485633367334
H           -1.18021624518355       -0.13817244299229        1.92297915188715
C           -4.90199513887783        0.33197915556697        2.71778821213393
H           -4.78522986891882        2.12311516622944        1.57831983129477
C           -4.23817740279231       -0.78659036345351        3.19072276336239
H           -2.36155490536440       -1.81704459026330        3.26888604298142
H           -5.94636581633566        0.47847430652871        2.95137170846933
H           -4.76076492210636       -1.51671708655495        3.79113489669450
C           -2.99469865390418        2.91585890818895       -0.17590237465174
C           -2.16586820389458        3.75430173159584       -1.01767416450822
H           -3.65942921101992        3.55265520281709        0.41147344566932
H           -3.58778906192927        2.25090873374514       -0.80976190039021
C           -1.45153152141305        4.42652395668224       -1.70158848866146
H           -0.82482217194160        5.01050144940838       -2.30614336251926
Cl           1.21058434199913        2.39828065435051       -1.95652922099170
Cl           0.76056427944743        3.17073156499091        1.04912286595588
O            1.41240119285888        0.62207496689250        0.72249268268669
O            0.23802890014822        0.01661747628968       -1.39002277343845
C            1.63543388840339       -1.69346955395002        0.20755837731910
C            0.25182940808595       -1.88572034376964       -0.05819656649464
C           -1.73612413229213       -1.15860720106804       -1.16276554550244
C            3.53605366129687       -0.21398110239018        0.28406315566828
C            4.43806746885990       -1.26082275341364        0.27395676728818
C            2.53273657176368       -2.76243268083453        0.31030586739384
C            3.88780910234529       -2.56425668311680        0.35208820174494
C           -0.47726205042856       -2.98621262710861        0.42373362660166
C           -1.80219292343242       -3.14737570123574        0.13186872432710
C           -2.48736913832047       -2.22665508300150       -0.69123019184919
H            2.13721091160466       -3.76560792235550        0.28532016686179
H            4.53542859006088       -3.42043238726209        0.40488324640146
H            0.02465933673487       -3.68490102341337        1.07380851850048
H           -2.32477190440371       -3.99045405122895        0.54709638625995
C           -3.94491505862050       -2.41613888294891       -1.07245396865907
C           -2.22931238895560       -0.15587924671495       -2.03836746352204
N            2.18402904056873       -0.43220007898116        0.32378144981406
N           -0.42436635217121       -1.00810864415863       -0.86282329893912
C            3.89544583709920        1.15530414664067        0.31326483228052
C            5.93625526108696       -1.02459108058925        0.18900893304761
C            6.40503789901058       -0.26886386226227        1.44137915861388
C            6.72100089102221       -2.33925738768132        0.10933546681227
C            6.25246644355694       -0.21326354623750       -1.07605585414821
H            6.16204920533434       -0.83571831682791        2.33829702316826
H            7.48276080197193       -0.13172763759726        1.40329889034027
H            5.94101834798074        0.70953282065331        1.51371455819595
H            7.77959993289045       -2.11165060277398        0.01072611272976
H            6.59457255767933       -2.93481555276762        1.01052204172600
H            6.42446916922032       -2.92514165161626       -0.75767975773877
H            5.78650782962362        0.76637664269506       -1.05234204167983
H            7.32725214622428       -0.07418864357626       -1.16215136360802
H            5.90236756147037       -0.74139244794935       -1.96092809311775
N            4.16436336852706        2.26895517119773        0.36230163363671
N           -2.60029256141365        0.63551237241407       -2.77870571214157
C           -4.76264811249092       -1.18311592191313       -0.66708279033527
C           -4.03563664172202       -2.64008375590474       -2.59039500067143
C           -4.56477731008760       -3.63153996257489       -0.37401257725751
H           -4.41011434952238       -0.28675357194756       -1.16565700446463
H           -5.80547997111165       -1.33153998915319       -0.93699425163998
H           -4.70214599918961       -1.02808944032604        0.40727780769049
H           -3.68030037018921       -1.77482079481137       -3.14161142180358
H           -3.44387558467166       -3.50564267273603       -2.88295450244331
H           -5.06992679256820       -2.82079124000128       -2.87232919130384
H           -4.52213589733370       -3.52570114080795        0.70763030672853
H           -5.61124746221770       -3.70627851832917       -0.65952545299369
H           -4.07495412358372       -4.55629711805577       -0.67051619324593
