71
 energy: -114.713078360240 gnorm: 0.000788821181 xtb: 6.5.1 (b24c23e)
Si          -0.14337198051728       -1.76571045856970       -0.47390423019603
O            1.38631645140723       -1.42542037014766       -0.05693061484713
C            2.28056521767869       -1.53462553265380        1.03306334030136
C            1.88783673913939       -0.56050084093445        2.11940672154402
H            3.24760515703104       -1.22668666115268        0.60677042909752
C            0.66000986730593       -0.66688791247677        2.76230681187458
C            2.73530934320333        0.48685727864985        2.45716064865907
C            0.28069322843299        0.27550199000872        3.70184230729481
H           -0.00424930948384       -1.48161446161786        2.52154751743989
C            2.36186973246723        1.42008738834760        3.40813732400178
H            3.69903218888725        0.56951560380643        1.97495620741843
C            1.12717459687918        1.32256389048326        4.02543966871123
H           -0.67936541757854        0.18605942355385        4.18828701283547
H            3.03473497235313        2.22559630437880        3.66468433727233
H            0.82978682736801        2.05466475462721        4.76198508769053
C            2.43324852463477       -2.96778854676419        1.56398017631318
C            2.86520483409214       -3.84416618755899        0.49615147133867
H            3.17581409167775       -2.95598537425036        2.36677308048978
H            1.48119610799354       -3.32628747867279        1.95648049612200
C            3.21509879233026       -4.51342444615695       -0.43148934472399
H            3.50949380538565       -5.12875150982995       -1.22773034201234
Cl          -0.40696196676069       -2.65064804107699       -2.26092243694952
Cl          -0.70183366217395       -3.34130229437065        0.78363612740326
O           -1.33354357442699       -0.86453154446005        0.33370179960038
O            0.02909027144032       -0.06732406413419       -1.60892996739000
C           -1.31035287738164        1.52753117537946        0.14917426449476
C            0.08327890302767        1.67749150999258       -0.09111231533979
C            2.01895550433908        1.01435872407330       -1.31119821946643
C           -3.31894071147439        0.22469797040019       -0.14975781413856
C           -4.14055426358384        1.31531980607524        0.05334655920992
C           -2.13289778958063        2.61385723578173        0.46406262500652
C           -3.50112561183916        2.51716529488859        0.44318045178794
C            0.87120691136145        2.66917523931812        0.51932816314025
C            2.19313769212700        2.82529856961300        0.20749250314537
C            2.82141117760366        1.99869528696123       -0.74379414542711
H           -1.66958331467217        3.56683690957473        0.66412428344484
H           -4.08535288368479        3.38751905707490        0.68046390678154
H            0.41936482131038        3.28772527110646        1.27708832050199
H            2.75497198125110        3.59017068517569        0.71349542410251
C            4.27125912603530        2.18422897006928       -1.15715048898021
C            2.45820451398981        0.07233203780734       -2.27936973684767
N           -1.95270896660435        0.31308087580138       -0.01499660096920
N            0.70876996125509        0.87947563715929       -1.00771099725443
C           -3.76500106644883       -1.07732100220232       -0.47473387383307
C           -5.64537998247387        1.22729898274956       -0.13533942163582
C           -5.94889586962794        0.78853606317846       -1.57539462283176
C           -6.22858791776005        0.21777346106734        0.86432698475871
C           -6.33394499149020        2.57643454474043        0.09970421592453
H           -5.55178317813618       -0.19962779843007       -1.78438545783269
H           -7.02452978134179        0.76075775028818       -1.73093785740631
H           -5.51725361555906        1.49275821914474       -2.28421219337561
H           -7.30982628880902        0.18040626165628        0.75773911351508
H           -5.83690850288809       -0.78044762977659        0.69723092428258
H           -5.99364222449864        0.51647611963049        1.88411912526935
H           -5.96202905752396        3.33547823476059       -0.58459657972683
H           -7.40079461070342        2.46318145036193       -0.07693940070523
H           -6.20310453365528        2.91655554980234        1.12427520999601
N           -4.09106409970126       -2.14599167976044       -0.73581689007124
N            2.78688002274877       -0.68274398895575       -3.07495377134862
C            5.07556008571081        0.90332854232023       -0.89369327249717
C            4.31471971706376        2.53281607477930       -2.65361092268480
C            4.94295543254373        3.32602100923256       -0.38590440952666
H            4.65521109634834        0.04807851131140       -1.41291867007868
H            6.09822199057802        1.03814316374679       -1.23768488009208
H            5.10351616345246        0.68437360187506        0.17184605102331
H            3.93016952386767        1.71999773005724       -3.26195297955799
H            3.72440684747152        3.42561657646846       -2.85200175929640
H            5.34092188567182        2.72636388563393       -2.95582213867889
H            4.94555763795201        3.13420684911375        0.68470008333918
H            5.97730799797473        3.41090684272015       -0.71029801461325
H            4.45452330698494        4.27789650920711       -0.58116640479960
