71
 energy: -114.720561071129 gnorm: 0.000595061925 xtb: 6.5.1 (b24c23e)
Si           0.06026231006143       -1.25987297316014       -0.12955488519449
O            1.47098052260345       -0.66572882509033        0.43787368251532
C            2.41500727104078       -1.30717144423719        1.27120431733639
C            3.07492806521925       -2.47266491043431        0.58275292429191
H            1.89884477403908       -1.66190428193094        2.17093506562035
C            3.41538774865487       -2.39296554019396       -0.76006553422668
C            3.34861661718636       -3.63531554910409        1.28968918050131
C            4.01424401479427       -3.46861111803279       -1.39112866274596
H            3.19386084924430       -1.49451864265179       -1.31722403899771
C            3.95435153289022       -4.70645272772202        0.65890290490341
H            3.06955527570889       -3.70518852257173        2.33067207028419
C            4.28671271440773       -4.62589955948863       -0.68292994821079
H            4.26357662616275       -3.40042371665269       -2.43935180741611
H            4.15678305984292       -5.61051097669041        1.21404658603201
H            4.75057833472614       -5.46721794492868       -1.17678638577055
C            3.46437322180957       -0.25317654609459        1.66635190646086
C            2.83684249558484        0.85469060931348        2.35137460196003
H            4.20541934947794       -0.72152332954308        2.31826255612778
H            3.96383469951876        0.10119600140755        0.76149931560618
C            2.26480610147640        1.75408962892973        2.89638936207657
H            1.78685710917396        2.54191202566810        3.39759516803797
Cl          -0.14408192364015       -2.13638558202054       -1.95159941517748
Cl          -0.06106970960922       -3.00518481962297        1.05578169035267
O           -1.31006550870078       -0.71376898389848        0.73923777563397
O           -0.05615156140920        0.36682723781045       -1.12025229671521
C           -2.03167414150803        1.53654580658569        0.37792643914429
C           -0.72992592165709        2.09708012149198        0.27964392980549
C            1.46111927803222        2.04080935941107       -0.66722766984869
C           -3.50528045555415       -0.35000554969296        0.09906481838071
C           -4.63685439142538        0.44195114018377        0.08228871866346
C           -3.17691035092458        2.33991664796910        0.46650657379574
C           -4.43755926894735        1.82131483133035        0.33899912341732
C           -0.38116097550384        3.32408631704198        0.87381296279786
C            0.84777877141345        3.88855008750394        0.68514415669512
C            1.82298346060966        3.26677926350470       -0.12524702759123
H           -3.04718344207616        3.40526726565436        0.57204049061567
H           -5.27997936150407        2.48650246704349        0.39467640940188
H           -1.10294051731198        3.80259560863548        1.51611612557226
H            1.06894952770636        4.82174894731922        1.17205394288917
C            3.15707826250257        3.92610773605055       -0.42989402071704
C            2.29691903889496        1.25678857157881       -1.50207874446002
N           -2.25840488992995        0.17575995899462        0.31972079363222
N            0.23455392858342        1.49696221377548       -0.48280022862740
C           -3.50846917405388       -1.75746097840678       -0.05825680684960
C           -6.01570250472372       -0.13434364864284       -0.19037473758233
C           -6.01634393093576       -0.82568162236509       -1.56166906994694
C           -6.37660730585926       -1.13722480774700        0.91574195087506
C           -7.09744559488745        0.95183670974490       -0.21328093968925
H           -5.32027084056079       -1.65754058039590       -1.59223678411230
H           -7.01060308243615       -1.20884348985693       -1.77750966259650
H           -5.74425637109456       -0.11734608301302       -2.34198334593047
H           -7.38004023356057       -1.52058026057120        0.74839043320715
H           -5.69067182445260       -1.97804476223186        0.93129259594007
H           -6.35225147402176       -0.65115682454695        1.88937954204500
H           -6.89547194625305        1.69616880632902       -0.98021415222258
H           -8.05476921163297        0.49003442826154       -0.44240877712992
H           -7.19067571192578        1.44204844705297        0.75305713423688
N           -3.48829277400236       -2.89782440040350       -0.17472318192222
N            2.95065468180169        0.61954710982830       -2.19463567360565
C            4.31943902636305        3.01598914042418       -0.01233847449788
C            3.22629072421977        4.21355071775938       -1.93851551025948
C            3.31883308648984        5.25646366579167        0.31405702357069
H            4.33949125296575        2.10407121082809       -0.59930244801133
H            5.26235651463372        3.53484366287839       -0.16724818337486
H            4.23348666451247        2.75552923778900        1.04042180253751
H            3.17841463586595        3.29759318203490       -2.51988967360436
H            2.40409657562564        4.85967689940514       -2.24071309247132
H            4.16142024472232        4.71584046742627       -2.17310627807736
H            3.29152178175882        5.10919759711932        1.39104029599809
H            4.28556175595048        5.68603142536531        0.06289617468856
H            2.55421349382570        5.97317744669538        0.02336291193116
