77
 energy: -121.058730367518 gnorm: 0.000734838022 xtb: 6.5.1 (b24c23e)
Si          -0.05220827646528        1.64173767373107        1.26277003619030
O            0.80952670473339        2.20382827991306        0.04605298220955
C            0.52979055095754        2.54548760965715       -1.30502526102983
C            1.03608261422396        1.47163507176511       -2.22980765402908
H           -0.55342524175318        2.64160396013498       -1.42698458771163
C            2.22903997493621        0.81698188081240       -1.96197697722618
C            0.30196723441047        1.12028834819102       -3.35504718174001
C            2.67123938172309       -0.19405718891019       -2.79702704981950
H            2.79876954027027        1.09159632328056       -1.08615682503055
C            0.74887020783389        0.11418672333733       -4.19129070308929
H           -0.63268919535310        1.62127122538855       -3.55728923011689
C            1.93187169376018       -0.54955561240615       -3.91088584884545
H            3.59494886004651       -0.71035458601368       -2.57891068485536
H            0.16754128564515       -0.16140054168888       -5.05935832843845
H            2.27640675983138       -1.34239936788765       -4.55970673615199
C            1.20612752656548        3.89607891397414       -1.58787405624820
C            0.61866981077198        4.93303821537123       -0.76622833640287
H            1.08138089373451        4.13935067660921       -2.64586090556939
H            2.27240529016960        3.81186738788878       -1.36345911790414
C            0.10213695378500        5.74621349595513       -0.05722992886283
H           -0.33557732181873        6.47637582469962        0.55544969755511
Cl           0.54909636166142        2.66286042674410        2.87909300980998
Cl          -2.05545342006654        1.82149309601647        1.21843101882771
O           -0.82861554735708        0.17121171590722       -0.90321282349224
O            0.26200419455172        0.05320348915008        1.66986750081570
C           -1.07994068096891       -1.78025117594724        0.20303287097463
C            0.39262059811015       -1.81341509347822        0.22541662270820
C            2.41648782203679       -0.78618820932725        1.08188638939627
C           -2.95234835534597       -0.57743535746230       -0.58396732118251
C           -3.84476738984632       -1.49107595477013       -0.00423393504858
C           -1.90798847369983       -2.72986869711162        0.78145234283617
C           -3.28837085582139       -2.56077276031512        0.67780475241310
C            1.13970925062009       -2.70370511731133       -0.49047967485736
C            2.55662385020741       -2.64875997376493       -0.40122546475574
C            3.20405053990709       -1.71999607541606        0.38436781113512
H           -3.91842639459293       -3.29254249906376        1.15298233669291
H            3.10606937262404       -3.36665163146776       -0.98212533638585
C            4.71880482197633       -1.71155295486066        0.54109589455682
C            2.90500053668636        0.21761075257548        1.90836911248771
N           -1.60850653196269       -0.71482947852556       -0.43625666451671
N            1.02532514278546       -0.87311785787011        0.99205720415653
C           -3.29460577114272        0.54087311824559       -1.37542874906908
C           -5.34303447914641       -1.27402797041514       -0.11275778298440
C           -5.68745524471782        0.09160760235107        0.49895824927480
C           -5.76151754623565       -1.31997977191524       -1.58921756623545
C           -6.13662769856606       -2.34650206686137        0.64048681900829
H           -5.21159448852791        0.90316534241412       -0.04239733671673
H           -6.76318465184249        0.24643860825718        0.47096070593818
H           -5.35716054999813        0.13572812534102        1.53452228499032
H           -6.83752592618738       -1.18714422857125       -1.66905162573845
H           -5.28017985124635       -0.53433518331023       -2.16316765527725
H           -5.50044507815295       -2.28158885270926       -2.02786360102321
H           -5.89278358975967       -2.34488450121652        1.70019152455174
H           -7.19862020953265       -2.13456956913549        0.54322608382690
H           -5.95663739422609       -3.33715589520808        0.22870175394095
N           -3.50252796157895        1.42875642500985       -2.07292352249500
N            3.29271615972243        1.05392455143534        2.60660080713769
C            5.30722029506008       -0.35682610854947        0.12504030246616
C            5.05534696031947       -1.99893180911221        2.01264362743901
C            5.39092770762337       -2.79269780473937       -0.31329439078678
H            4.91803613697299        0.45236671075001        0.73356926952728
H            6.38801016435207       -0.37790775377204        0.24575757533146
H            5.08492179953433       -0.14713324924016       -0.91870971833406
H            4.67991126842854       -1.21576915527418        2.66385634501651
H            4.62034529810148       -2.94759375657647        2.32234753123536
H            6.13377550441099       -2.05766974417863        2.13871644540762
H            5.19123455723858       -2.64332058148430       -1.37189169620674
H            6.46738987931705       -2.74065627644881       -0.16736398505003
H            5.06376996955273       -3.78825302691708       -0.02270264566052
C           -1.34117689331051       -3.90170886817946        1.51663484709044
H           -1.35287161764991       -4.78693276382617        0.88058284217333
H           -0.31433476491797       -3.71337976589086        1.81850903533348
H           -1.93974668620209       -4.11691872217501        2.39876898748774
C            0.52261487298324       -3.72282950176031       -1.39540390462408
H            0.94283982591615       -3.61761150928430       -2.39457722646316
H            0.74831319554857       -4.72915668275906       -1.04310998473928
H           -0.55489328164892       -3.60530532179584       -1.46110959522516
