77
 energy: -121.058119727100 gnorm: 0.000712073528 xtb: 6.5.1 (b24c23e)
Si           0.34756827217788       -1.30980500806791       -0.12845963503520
O            1.71506377714001       -0.57460730573296        0.35927469305049
C            2.74645386096705       -1.10052163330583        1.17057660052687
C            3.53501478868042       -2.15590045487548        0.44149658494644
H            2.29547375382670       -1.53955972351671        2.06760700586978
C            3.86136447344187       -1.98491814112910       -0.89673356930776
C            3.93185239594965       -3.31128590616974        1.10035241503962
C            4.57212057780223       -2.96272125055728       -1.56954581698475
H            3.54329711572215       -1.09224690085457       -1.41532851950029
C            4.64723486194625       -4.28483083696582        0.42715048324338
H            3.66317769713157       -3.45388429914443        2.13658551485352
C            4.96747904864015       -4.11313856077817       -0.90909632845331
H            4.81316201064839       -2.82482842519404       -2.61311893841559
H            4.94519862542778       -5.18494734543146        0.94455513230292
H            5.51786164351053       -4.87877568046158       -1.43625150826810
C            3.64871367718295        0.07590333190369        1.57975968143252
C            2.88663686212968        1.05372936966488        2.32400886723943
H            4.46723142760376       -0.30470338281960        2.19530645635372
H            4.06551983989261        0.53157534107094        0.67870880451144
C            2.20136314886758        1.83536683914383        2.91781343306900
H            1.62510089026702        2.51834911203300        3.46693525880927
Cl          -0.04048127294604       -2.27625387244321       -1.88583887249584
Cl           0.47511883754645       -3.03848975005776        1.08262947609283
O           -1.00120128761978       -0.76649272155856        0.80093510077815
O            0.10177733922544        0.24773795522734       -1.23251717285485
C           -2.12874751739397        1.08592119968237       -0.11980664695622
C           -0.90556715384875        1.86565212318309        0.06057878956489
C            1.33858149081723        2.14227676657770       -0.69937030806298
C           -3.15535164848823       -1.09360918019190       -0.04304179720227
C           -4.31243360269129       -0.61295678081349       -0.65729794124350
C           -3.26684645408858        1.59839886651302       -0.71068053481216
C           -4.34859554511980        0.74127964233035       -0.96818634238135
C           -0.80673015660037        3.03626932867693        0.79700161929101
C            0.37720480523156        3.77477735421828        0.72956856610833
C            1.45241306020704        3.38170311488147       -0.05911059879520
H           -5.20557043989513        1.16504867116677       -1.46020410741165
H            0.42806300096495        4.68134624637265        1.30685335185150
C            2.66681231675457        4.27164930577391       -0.26936551185084
C            2.32999407838809        1.54287332636040       -1.49640678677849
N           -2.11108133470188       -0.23405521013555        0.22658775003127
N            0.18443158575301        1.42223430480205       -0.61552025364625
C           -2.96088945812420       -2.41501085746028        0.38969901479497
C           -5.46560183622785       -1.54675306063269       -0.98590459072832
C           -4.96012460225998       -2.66729423456814       -1.90588258564168
C           -6.03315158545677       -2.13213637365880        0.31534092817411
C           -6.60532814734669       -0.82221118240828       -1.71120264176297
H           -4.20666395127013       -3.27756373060861       -1.41927558005663
H           -5.78952221868896       -3.31168582258652       -2.18660844561816
H           -4.52773344033902       -2.24655101967976       -2.81140158410365
H           -6.88005749462574       -2.77434025367804        0.08730510695406
H           -5.29239088577995       -2.72375026779647        0.84290239397536
H           -6.37408333050566       -1.33372924123380        0.97219146590591
H           -6.26869305866532       -0.40160311854219       -2.65569535553069
H           -7.39426036929713       -1.53781033982185       -1.92935252104285
H           -7.03356158337476       -0.03496139326061       -1.09494843495815
N           -2.81486380863827       -3.48263248289471        0.79210802272359
N            3.11593754261353        1.04338509855848       -2.17064602914469
C            3.95574140212201        3.55257929824070        0.14649296460216
C            2.72990147372763        4.64421558212389       -1.75961885109054
C            2.57381079887432        5.56872822862472        0.54159039845743
H            4.15293299678868        2.69563693767438       -0.48826281806063
H            4.79732846070720        4.23554443191010        0.05876635986366
H            3.88433158035605        3.21657713147122        1.17848009990035
H            2.86016522611967        3.76372522107243       -2.38204646636384
H            1.81749595225000        5.15389930085259       -2.06462100482673
H            3.57024377613593        5.31115805937761       -1.93507441564582
H            2.54454919077482        5.36202535277276        1.60854203148805
H            3.45645443120243        6.17231144508406        0.34526415888512
H            1.70272285350233        6.15561725131950        0.25927804805554
C           -3.36846544034910        3.02100677592446       -1.16569946121869
H           -4.01527564505452        3.58549894305889       -0.49464811941918
H           -2.39776383784197        3.50553254864846       -1.20443353261365
H           -3.81474486800361        3.05393953290457       -2.15752060827532
C           -1.91652721360108        3.50518104051203        1.68385505653689
H           -1.53301889089276        3.66197948600307        2.69082478642799
H           -2.31435699798683        4.45668389952148        1.33345336264481
H           -2.72242187126651        2.77903398374874        1.72948045220139
