77
 energy: -121.055427892607 gnorm: 0.000917952846 xtb: 6.5.1 (b24c23e)
Si           0.30090962310325       -0.80466226161628        0.30653128140719
O            1.45187430727860       -1.92153534235131        0.13809908900455
C            2.66542836318562       -2.18972726040103        0.79761177511169
C            3.75391296167990       -2.40762658338502       -0.21939521975067
H            2.92743723878159       -1.34506434571018        1.44366688413126
C            3.47781950634633       -3.07563844810728       -1.40450617592541
C            5.04505120220407       -1.96325260729442        0.02944385544302
C            4.48172819032253       -3.29512734538579       -2.33036477173428
H            2.46816278529222       -3.40318682152164       -1.60033399928753
C            6.04959950465749       -2.19032395176229       -0.89411619848382
H            5.25956810330927       -1.43221039518064        0.94573484014185
C            5.77021965389256       -2.85675305973902       -2.07509232166566
H            4.25787676424211       -3.81008827027560       -3.25349511098258
H            7.05210714384060       -1.84079604959234       -0.69435350753624
H            6.55480041036133       -3.02999008015483       -2.79749648657085
C            2.47036444293590       -3.45141787702791        1.66482506469931
C            1.32517844514604       -3.27908651554318        2.53325930009794
H            3.37670906169451       -3.62868106054103        2.24847754453393
H            2.29400180231850       -4.30694128768023        1.00681862294541
C            0.33848302579522       -3.07788777703895        3.17987811230040
H           -0.52686930622427       -2.93074664100016        3.75401597782840
Cl           1.31518456859814        0.37025525792498        1.82574830757057
Cl          -0.92116500523742       -2.09460340523678       -0.89843717189759
O            0.33577880849778        0.36950048447258       -0.95009364321858
O           -1.11853782692240       -0.17039599209069        1.14930044192330
C           -1.11375124585081        2.09963612444140       -0.30681616174239
C           -2.22379557482697        1.15638753442823       -0.41677994694792
C           -3.19690243877452       -0.89046915524459        0.39045798269007
C            1.27414285889390        2.42512202073341       -0.40198771389456
C            1.16093679972235        3.74224289158597        0.02766978479169
C           -1.26323057406156        3.41369491772317        0.10591552487396
C           -0.13065867126951        4.21703494724831        0.26030032019101
C           -3.28645819040549        1.30269387500732       -1.29466028553261
C           -4.28606646614005        0.33039879979277       -1.32443981423824
C           -4.27165161866841       -0.78448909909066       -0.48445171944370
H           -0.28096573186042        5.21850250714122        0.62296627947857
H           -5.06943689835545        0.44823502211610       -2.05227929752498
C           -5.33668056258310       -1.86387484763617       -0.54220316535399
C           -3.00673324450834       -1.90183389549158        1.35486020770826
N            0.15035038244872        1.66877268826030       -0.60625645690987
N           -2.22729025928827        0.07047206664550        0.41480600090209
C            2.47530614846784        1.74811072363843       -0.69365342936252
C            2.39575912111829        4.59178165997804        0.26840293098302
C            3.17729166549755        4.73788335309645       -1.04524782226509
C            2.04183648269653        5.99689903295009        0.76692073564107
C            3.26191935911248        3.91032869054804        1.33707377040652
H            2.55520142274364        5.20521728125774       -1.80679198032423
H            4.05044355551676        5.36494327080015       -0.88324766250521
H            3.51601764169217        3.77568866892871       -1.41585144437661
H            2.96021908270187        6.55899522350636        0.91801560279731
H            1.43780315000952        6.53655366727894        0.04071563173971
H            1.51722017242218        5.95732011440865        1.71841271802085
H            3.61785483970306        2.94151316157381        1.00263793027997
H            4.12337707927926        4.53339803186514        1.56464648453366
H            2.68823000569378        3.76103254893835        2.24894243459161
N            3.42658067223653        1.17391611212024       -0.98706965655932
N           -2.84593424709578       -2.65029961625219        2.21094400960991
C           -4.65798494005202       -3.20452631429207       -0.85584564542122
C           -6.06776080346475       -1.93211691645175        0.80627213415004
C           -6.37620412315965       -1.58917761416040       -1.63365083394241
H           -3.99363799861676       -3.51156451422236       -0.05531278269051
H           -5.41181060407171       -3.97593275604273       -0.99245303445435
H           -4.06654921285914       -3.12401814200407       -1.76449589589042
H           -5.38694177411709       -2.17936883164884        1.61454763240778
H           -6.54262428586162       -0.97834088955777        1.03015938630957
H           -6.83812544546092       -2.69801900603661        0.76583057070197
H           -5.91283923958783       -1.55713742401271       -2.61653621767091
H           -7.10625787394420       -2.39485703047133       -1.63637631491076
H           -6.90994406932239       -0.65878703173982       -1.45188990367224
C           -2.59652431908695        3.98051796253735        0.48377470029454
H           -3.35960953666690        3.21134196528191        0.54627892831365
H           -2.52045823177422        4.47541530053959        1.44996218765372
H           -2.90667572205194        4.72768181712174       -0.24588750223413
C           -3.34900114351006        2.43032947456285       -2.27734857979482
H           -3.52815006368200        2.03179968048576       -3.27396508166595
H           -4.17568462092772        3.09703383487103       -2.03506904799169
H           -2.42666248312959        3.00221174918371       -2.29262898181769
