77
 energy: -121.064258434666 gnorm: 0.000290920709 xtb: 6.5.1 (b24c23e)
Si          -0.44288539489953       -1.35419266039008        0.87813534635469
O            1.02848172818160       -0.86077725480414        0.47312590314950
C            2.24270996586451       -1.51068969012662        0.11520386479710
C            2.00715885849509       -2.57247135215464       -0.92794249360280
H            2.85915507561154       -0.71375431498863       -0.31955795741450
C            1.42759208942885       -3.79262424835172       -0.59972692699533
C            2.31870908690077       -2.30497735416202       -2.25537789321344
C            1.17068241655113       -4.73046254477910       -1.58385233480361
H            1.16073607286353       -4.01632841208892        0.42231246656958
C            2.06161548216099       -3.24567105263973       -3.23717080267598
H            2.75294299456040       -1.35436485462083       -2.52628774819622
C            1.48803677117019       -4.46027908950933       -2.90395429654942
H            0.71710614491018       -5.67292501803827       -1.31575610239752
H            2.30497056232095       -3.02282602102050       -4.26486832931399
H            1.28357909276668       -5.19305199867528       -3.67029478212610
C            2.93882344244047       -2.03815917265200        1.37835069621604
C            3.08902475802081       -0.97749713317733        2.35185755366784
H            3.91722779409892       -2.43640345190536        1.09870653352697
H            2.34362629220975       -2.83531022192309        1.82733353433348
C            3.16602726208071       -0.07818948284617        3.13734769454209
H            3.24944889948919        0.68459288886225        3.85212242230719
Cl          -1.52299713471510       -1.93623206766387       -0.71359205522467
Cl          -0.44780822191316       -2.68364022130689        2.37283973222130
O           -1.12361070181712       -0.02954552404484        1.56789932834859
O            0.46501660132276        1.01280209377803       -1.92534950227058
C           -1.38726879127548        1.64793096610309       -0.09461607571691
C            0.02782409675841        1.96320623875492        0.09989472863350
C            2.21324707044908        1.89862016147449       -0.79207447504719
C           -3.30659315393643        0.49561720509705        0.82226024147871
C           -4.08222847631446        0.85002800463746       -0.28335424914788
C           -2.14801184726659        2.06574619987130       -1.15890273527986
C           -3.48877308060919        1.64290619274539       -1.25348937430152
C            0.52447179371057        2.53721067841180        1.26720559534166
C            1.88347694434737        2.79986980811200        1.37158502992356
C            2.76468949110077        2.50173114622423        0.34182572190513
H           -4.04347612157482        1.95641454998307       -2.11899941637906
H            2.23932571318579        3.25814820135629        2.27726353790600
C            4.24968014848594        2.81641780205523        0.41628212013106
C            2.94887594979830        1.47602828155311       -1.92312565039733
N           -1.97202410185437        0.90201961473705        0.91296693439165
N            0.88272434952459        1.61382040244203       -0.90085585178208
C           -3.72556197112057       -0.26027517071726        1.91841215341032
C           -5.51996082578744        0.36882373033802       -0.39370932322065
C           -5.53085225854316       -1.16656294522315       -0.39336498955618
C           -6.33428680590752        0.91049702022680        0.78931053923249
C           -6.18957154132760        0.84522792153492       -1.68693664116202
H           -5.16532244989081       -1.56535813997064        0.54776623664418
H           -6.54495317382732       -1.52848599631019       -0.54528221800308
H           -4.90194877721542       -1.54774353613864       -1.19540211564924
H           -7.37134846616358        0.59711281845960        0.69591169874806
H           -5.95232900661889        0.54114508347330        1.73588917782612
H           -6.30300822864788        1.99854038036942        0.80312953440204
H           -5.66500524924734        0.47035296568352       -2.56235731372044
H           -7.20816259411140        0.46528945413904       -1.71946186128717
H           -6.23795428375663        1.93093522197859       -1.73109038586137
N           -4.00328380174986       -0.88067987197654        2.85088471014842
N            3.50866713232139        1.10071884442823       -2.85204668492131
C            5.05807101494195        1.51489566914998        0.31258728536568
C            4.62100582275773        3.77013753369974       -0.72918513804918
C            4.62585206253025        3.49700643989863        1.73625767246660
H            4.92832854009658        1.04070414827744       -0.65530920433552
H            6.11603900695629        1.73081248208874        0.44061525479624
H            4.74888902148727        0.81856473421023        1.09024437547663
H            4.44255059286635        3.31793657507625       -1.70003328477722
H            4.03913441390826        4.68770529821908       -0.66159367740109
H            5.67549802274191        4.02710753952609       -0.66535127793782
H            4.42359121981603        2.84653934961123        2.58291703605623
H            5.69126884921320        3.71464879314118        1.73191776503529
H            4.09481667188152        4.43759557659130        1.86394518238943
C           -1.58448109254732        2.96652088658569       -2.20767898177506
H           -0.97077928215730        3.75013286248414       -1.76547985980657
H           -0.94975737331728        2.37963254566625       -2.87499479527936
H           -2.37971509874197        3.42264194447955       -2.79046612737598
C           -0.39761773543843        2.89287519066498        2.38725465203858
H            0.07913152134627        3.59305033880406        3.06816949086304
H           -1.32030679393172        3.33007923918182        2.01070067114461
H           -0.65855200543783        1.99362577800509        2.94463651114645
