77
 energy: -121.058152423410 gnorm: 0.000685331334 xtb: 6.5.1 (b24c23e)
Si           0.14942563905461       -1.32462769407722        0.01996274127998
O            1.61403842684885       -0.72210897061750        0.40135553928812
C            2.63701462610669       -1.33369253046691        1.16055157966658
C            3.26871532785376       -2.48127926791283        0.41794961641395
H            2.20391896969936       -1.70254428088963        2.09719636673482
C            3.49167668550186       -2.39385737128520       -0.94892293198088
C            3.63083308722899       -3.63595099909426        1.09778325054352
C            4.06370548396065       -3.45403524397527       -1.62932177251976
H            3.20219708753311       -1.50047356318925       -1.48257245099223
C            4.20877510234309       -4.69166742005690        0.41679148647767
H            3.44291361373795       -3.71175764598859        2.15860344437601
C            4.42478003037534       -4.60342996985149       -0.94817218405875
H            4.22373765970627       -3.38022547166437       -2.69460497677696
H            4.48086022613941       -5.58973583727663        0.95163714698288
H            4.86747700640587       -5.43262047007690       -1.48050684320704
C            3.68175845507984       -0.24958025833169        1.47629885670616
C            3.08064654607348        0.81694139897930        2.24560435706604
H            4.49865407268995       -0.70177909400267        2.04370949424367
H            4.07793005149486        0.14154754935075        0.53641648089030
C            2.52792245202872        1.67555856564865        2.87037795985716
H            2.07104438626618        2.42977809277581        3.43831690171451
Cl          -0.41908170601760       -2.27763864424461       -1.69318692862847
Cl           0.18472020965920       -3.03670959645535        1.26139497613001
O           -1.07566142696527       -0.64824053728297        1.02905849513670
O           -0.02617581426359        0.23414037579075       -1.08769794525156
C           -2.04295919952634        1.34383530964218        0.20985673465739
C           -0.72674995523708        1.96961959002387        0.26219109689775
C            1.45631160195393        1.98008578798215       -0.70349986775196
C           -3.31170549849456       -0.70298726401154        0.36106528339939
C           -4.46286034440831       -0.07313460935567       -0.10791591203665
C           -3.17060829960957        1.99998590771823       -0.24962111869997
C           -4.36838735669811        1.28638670599863       -0.39197366083695
C           -0.41947387656825        3.12495372316897        0.96953063674204
C            0.82581826102077        3.72147051895294        0.77779018502646
C            1.77077645968042        3.20250018096121       -0.10413774157940
H           -5.21701270501932        1.82109370818767       -0.77908149469770
H            1.03830884887106        4.61691244185805        1.33526820199933
C            3.05410002500327        3.94448796313472       -0.44054856547330
C            2.29827438174908        1.25779025676761       -1.57003100404356
N           -2.15213946747736        0.02153520093038        0.53970958545934
N            0.24074205738719        1.39902944245411       -0.50368557321706
C           -3.22611256585391       -2.05671870067554        0.72681201015770
C           -5.75139639385988       -0.85152608854844       -0.31771753401244
C           -5.49927831392400       -1.98357356724999       -1.32382640370979
C           -6.22644906170596       -1.42132013505499        1.02680777553182
C           -6.87428198604941        0.03094060074458       -0.87515720576216
H           -4.76708150270540       -2.69364677766675       -0.95409607909458
H           -6.42672914165238       -2.51883515028765       -1.51167493708407
H           -5.13822492362030       -1.57742753940601       -2.26661042858777
H           -7.16829673660111       -1.94615736694812        0.88814998004649
H           -5.50744586055279       -2.12057037263874        1.44033634992662
H           -6.38329097117211       -0.61748927275065        1.74404417546405
H           -6.60876284172177        0.44444235949674       -1.84522725702488
H           -7.76606168551900       -0.57689145007946       -1.00713686524266
H           -7.12254187334261        0.83928103615730       -0.19097529330609
N           -3.16006926872984       -3.15320553461790        1.06696692651017
N            2.95919117991805        0.66147444649153       -2.29677359869827
C            4.28439947247046        3.08943884423963       -0.11373567732854
C            3.03183602077687        4.28200788608622       -1.94024630998430
C            3.17783797787952        5.25754529253595        0.33999485299609
H            4.32535554728522        2.20190641626306       -0.73586623872069
H            5.18741489155311        3.66768115123674       -0.29448784096172
H            4.26634175928549        2.78724685215996        0.93101643156574
H            3.00805916938004        3.38235479117797       -2.54811619492283
H            2.16060729977682        4.88838445658612       -2.18216648080564
H            3.92449446900220        4.84461332918482       -2.20203291461308
H            3.22904701533531        5.07333793046380        1.41026781097128
H            4.09711053181971        5.75803996979937        0.04578600282287
H            2.35117787574443        5.93058757080381        0.12417546516240
C           -3.14881973111568        3.43189792597727       -0.68657048995702
H           -3.63391803698047        4.06081275453028        0.05943204226659
H           -2.13747238635875        3.79367511564646       -0.84414261832850
H           -3.70534524196599        3.53598368583612       -1.61578488520282
C           -1.37061889339198        3.71515887546307        1.96238053336624
H           -0.86614625109543        3.83018698299877        2.92042063508580
H           -1.69715250399148        4.70436622259508        1.64448054131941
H           -2.24102816964106        3.08195947948214        2.10402827430756
