77
 energy: -121.062125477416 gnorm: 0.000437392039 xtb: 6.5.1 (b24c23e)
Si           0.52976929474671       -0.84606845498768        1.22111216838930
O            0.90642351440080       -2.39897455998149        1.20496240528240
C            1.63340453693514       -3.17576764788739        0.25570512853051
C            0.90722115529997       -3.20278031955660       -1.06288092422405
H            2.62408495284914       -2.72727098535144        0.12260050588563
C           -0.47318276196578       -3.35370227124710       -1.09548228723943
C            1.60925145866421       -3.07626633295128       -2.25375110105289
C           -1.14435564404371       -3.37597513134504       -2.30469780268258
H           -1.02138653858277       -3.43902564850242       -0.16906103425900
C            0.93622628711713       -3.10479002106289       -3.46291203384964
H            2.67964253151470       -2.93947284511513       -2.22832386865678
C           -0.44038608590961       -3.25566103419467       -3.49129228466514
H           -2.21830222195707       -3.49084803958133       -2.32053863045583
H            1.48769450723446       -3.00232107141849       -4.38575923192383
H           -0.96320234080056       -3.27472968331374       -4.43635514854846
C            1.77613205059113       -4.59179082593815        0.83248351862701
C            2.58126359102594       -4.58458302097923        2.03560914896823
H            2.24407162197670       -5.23045321196243        0.07895087732494
H            0.78138398729767       -4.98260707171735        1.06143147739068
C            3.24757810866886       -4.54423341240677        3.02811182416265
H            3.83082633732095       -4.52748117903089        3.89954251727396
Cl           1.70621313745666        0.26450682176392        2.40099846760783
Cl          -1.38923954013468       -0.80748119355799        1.79578572673226
O            0.63987287031457       -0.31748359069936       -0.33828146095393
O           -1.54937370196805        2.65012563537233        1.26597765093038
C            0.10517619293031        1.96509269529394       -0.71884178668211
C           -1.29175372707861        1.52795048583232       -0.69690550276865
C           -3.33662801775971        1.49686620669583        0.48101683993995
C            2.40782632468344        1.20364325036605       -0.76637932064664
C            2.86666716110792        2.52068003399944       -0.64383310701443
C            0.53512846034997        3.26573556548154       -0.67237475725048
C            1.92199714580963        3.53012777857318       -0.61634423933241
C           -1.82846281053883        0.67880094385289       -1.65959239176861
C           -3.12879038495980        0.22016397526977       -1.50710024632796
C           -3.91342156540903        0.60683930609139       -0.42863905475326
H            2.22160437274116        4.55924712331057       -0.53786007762397
H           -3.51736836941959       -0.44634253491297       -2.25655458454316
C           -5.32572756864606        0.08703136128522       -0.22314005473443
C           -3.99141762233102        2.04508933621664        1.60960428539669
N            1.03286662126715        0.94537507902190       -0.82380159630585
N           -2.04425679315307        1.91974482040040        0.36903458706651
C            3.18770624220867        0.05538676618484       -0.84583837928336
C            4.35835191876447        2.79612416396280       -0.54490234852553
C            5.05646408204028        2.29219002917198       -1.81587745793055
C            4.66029894343951        4.29107675728973       -0.39889660490778
C            4.91605566041623        2.07709612116557        0.69185665266003
H            4.64130306437033        2.78228361216581       -2.69490198971329
H            6.11926512090792        2.51697090390704       -1.76594264103874
H            4.94198059057801        1.21861966145889       -1.93191840083755
H            5.73643629660739        4.43040025172112       -0.32421741033662
H            4.31124492335026        4.85142520145730       -1.26339558082819
H            4.20748793281301        4.69730129830785        0.50227357870251
H            4.82330658084190        0.99919068357633        0.59959763879690
H            5.96918951172431        2.31813284159493        0.81571253996307
H            4.38069231499552        2.39304668095932        1.58499642282497
N            3.75532375638130       -0.95094952524997       -0.90298570543560
N           -4.49911092136507        2.54050595850644        2.51061400955961
C           -5.39477143361508       -0.62960040963431        1.13317966222373
C           -6.31890202268426        1.25687620826328       -0.26589660745602
C           -5.73111708320238       -0.91762616419269       -1.30712557333146
H           -5.22439194796820        0.05715593653552        1.95571860976257
H           -6.37631805740716       -1.07895062053989        1.26288577601087
H           -4.64215897622163       -1.41363057540883        1.18261064112291
H           -6.12488778201551        1.97340588016809        0.52587557587695
H           -6.25656778981190        1.77141390123027       -1.22325574328633
H           -7.33205675911086        0.88215299290353       -0.14287287322082
H           -5.06773869321097       -1.77910321519705       -1.31117704180382
H           -6.73815866906667       -1.27281805158174       -1.10167370174447
H           -5.73649166778310       -0.45881330468738       -2.29332891699084
C           -0.43404774821081        4.40015882226074       -0.68312013015469
H           -0.88384937858696        4.49023447294568        0.30805696710544
H            0.06635872814071        5.33228783135098       -0.92910108525783
H           -1.23661676880958        4.22435091168418       -1.39779959835945
C           -1.01931427034550        0.27690813174343       -2.85003489001116
H           -0.35437629045643       -0.54561977277905       -2.58835938996729
H           -1.66853703704723       -0.05788368603570       -3.65461401563639
H           -0.40782489830300        1.10516297366790       -3.20259958980036
