77
 energy: -121.056500738545 gnorm: 0.000802762250 xtb: 6.5.1 (b24c23e)
Si          -0.26082956363044        0.89851338787343        0.60734049828377
O            0.29170024341333        1.84600805340782       -0.57531349196345
C            0.35596990371360        3.25942743168741       -0.57457507141114
C           -1.00198579486557        3.85432364327328       -0.30658038276544
H            1.06306824757818        3.57367353578442        0.20305148798790
C           -2.12231439799763        3.31510481408895       -0.92508106995465
C           -1.15053787866927        4.92534239914718        0.56257233629114
C           -3.37866568686594        3.83190716982574       -0.66679391103446
H           -2.01350885767886        2.46996914463238       -1.58873208139397
C           -2.40715298202973        5.44730539619501        0.81271221632347
H           -0.28191422622230        5.33575312208079        1.05570314999303
C           -3.52279794623028        4.90041568140371        0.20130490060080
H           -4.24280558975338        3.39201079186387       -1.14160530361882
H           -2.51642336616644        6.27537250611961        1.49753533644768
H           -4.50421775035759        5.30203951880477        0.40775641583333
C            0.86042645797147        3.70250959847495       -1.95759244364337
C            2.25757470372633        3.38907270229181       -2.15893319918126
H            0.71732831557847        4.78272186171137       -2.04979408616202
H            0.25907954189891        3.19834916009033       -2.71798061143452
C            3.41768651216562        3.14759977573429       -2.32507150126897
H            4.43523283255511        2.94596118069791       -2.47825584688390
Cl          -2.24895677727195        0.55762918387623        1.16209515020006
Cl           0.06783296914406        2.15246952504046        2.29122207886584
O           -0.48292062579057       -0.33387964371237       -0.82847274801754
O            0.81475965647485       -0.23014262008316        1.31130963571364
C           -0.22213288107726       -2.46231004163404        0.07079473085733
C            1.20353915412718       -2.20667543743997        0.06166047621328
C            2.93050917855937       -0.54157338967968        0.37540366875335
C           -2.35701916496027       -1.66313753043629       -0.66027524119617
C           -3.01176952845428       -2.79027879003818       -0.18011795669765
C           -0.84346382362784       -3.59002603381076        0.60889655757241
C           -2.21755168964756       -3.72956102258439        0.48929069558151
C            2.14380836216741       -3.04986676792572       -0.51217247195509
C            3.47926699144346       -2.64638643479889       -0.57717502109019
C            3.89920228075075       -1.37891243971894       -0.16367293151300
H           -2.67310496008029       -4.58987836751490        0.94795037731143
H            4.17790710291112       -3.32486509898367       -1.03323977021735
C            5.34013895242942       -0.91933577927646       -0.31289090056662
C            3.13595545971330        0.78995682097572        0.77824052705450
N           -1.01716747738718       -1.50908968710104       -0.50170147596196
N            1.65009957631420       -1.00960435140547        0.56641609145767
C           -2.95551082904979       -0.61025099224919       -1.39547755075677
C           -4.51338466039169       -2.94982699954037       -0.33162864897438
C           -5.20834335341852       -1.75666299505996        0.33919444824029
C           -4.87128496195603       -3.01095249272547       -1.82374981516192
C           -5.02591202934357       -4.23267404422552        0.33130216157717
H           -4.94128802715867       -0.81895747546571       -0.13661535817894
H           -6.28702320115649       -1.87848252096084        0.27964592875867
H           -4.92126643167293       -1.69257121816585        1.38606337936406
H           -5.94348611092609       -3.14963137180182       -1.93691524987464
H           -4.59260279791066       -2.09640518755693       -2.33707751873822
H           -4.36448570426695       -3.84743715123370       -2.30202434661423
H           -4.83151617649951       -4.22770362274013        1.40097178852798
H           -6.10208922808203       -4.29649226585069        0.19068826710204
H           -4.57949218597511       -5.11838938693301       -0.11547372916544
N           -3.38048402805630        0.21164916629106       -2.07358420580216
N            3.28142361231354        1.87892097565977        1.11700897743627
C            5.39115689755449        0.29826573117347       -1.24528386264969
C            5.89587505651085       -0.55475060534649        1.07179657520121
C            6.23775006848737       -2.01044406486446       -0.90719180146031
H            4.83680062408046        1.13336135527087       -0.82962138678496
H            6.42458739293203        0.60612873254281       -1.38811747793954
H            4.96545897370237        0.04834489906545       -2.21558907106352
H            5.34513401634103        0.26720644881621        1.51804637095250
H            5.84095376630912       -1.41276819801575        1.73939623950861
H            6.93742949308715       -0.25601728901924        0.98221020344274
H            5.92169922274728       -2.28091425846889       -1.91198824278182
H            7.25561702185844       -1.63321945407378       -0.97074199663495
H            6.25134862033104       -2.89863106298799       -0.27969310485725
C           -0.07535510091011       -4.60226107982372        1.40057927656806
H           -0.03550337267040       -5.55495407603907        0.87463078757081
H            0.93648081789627       -4.26470549971200        1.60140591931942
H           -0.58016039874152       -4.77256831251801        2.34971304939210
C            1.76750503397834       -4.34587639306450       -1.16153838470683
H            2.27817926993610       -4.43259911962730       -2.11864365503962
H            2.08398119482604       -5.18542993646588       -0.54392103299300
H            0.69795404142385       -4.41694120322225       -1.33094674619267
