77
 energy: -121.056261420621 gnorm: 0.000628093710 xtb: 6.5.1 (b24c23e)
Si           0.40670540504115       -1.54235212634076        0.50122789623047
O           -1.21241695276341       -1.42863011109093        0.39450016165869
C           -2.19635607886133       -2.35948408981777        0.00105506782438
C           -3.12531236351946       -1.67155983109416       -0.97451782447340
H           -1.69825622383544       -3.19333482568361       -0.51528226430011
C           -2.59993821923511       -0.71078335064757       -1.83352747635968
C           -4.47765294031600       -1.97668376919995       -1.07033205255228
C           -3.40561590413160       -0.05363502081455       -2.74457038323100
H           -1.54472789683283       -0.48867972980587       -1.79128086980245
C           -5.28259381423087       -1.32765849306327       -1.99186563352812
H           -4.91830564060512       -2.72514472851290       -0.43134921858729
C           -4.75396061335782       -0.35803188172284       -2.82632591153136
H           -2.97725755002353        0.69115871278936       -3.40039834642755
H           -6.33131428704274       -1.57937629119272       -2.05379871161368
H           -5.38649833800341        0.15035875076174       -3.53924624446897
C           -2.89067672414451       -2.91466137273559        1.25565965701328
C           -1.90641184989913       -3.47654339430481        2.15786273491762
H           -3.59288639994976       -3.69863252399339        0.96547889588122
H           -3.42661109777464       -2.11117750433523        1.76796122604026
C           -1.06113336527544       -3.92123003487927        2.87741046310281
H           -0.32372452798079       -4.31118161706022        3.51271486635498
Cl           1.62254013228746       -1.92375860313374        2.09118694325817
Cl           0.65657917412370       -3.40155978491990       -0.47308223203874
O            1.14541954435424       -0.75135888291480       -0.84765247593212
O            0.29149657377535        0.19517125759579        1.33026342077426
C            1.59023899166039        1.53879065935864       -0.51576832528064
C            0.15177041471323        1.74051762938697       -0.37604195875895
C           -1.74327035384396        1.27103611934696        0.99918281487823
C            3.37708112537663       -0.07634420499146       -0.64478929795048
C            4.33960277443431        0.91928711726249       -0.48644960130455
C            2.51975271867125        2.55203438706639       -0.38451141378437
C            3.88451566966898        2.23052200907068       -0.38044349455214
C           -0.62908291084832        2.55756992459242       -1.18031705113513
C           -1.97434450874979        2.73277464149300       -0.85757519990373
C           -2.55318857129518        2.13532281983277        0.26044052634886
H            4.58021311541728        3.03811379965866       -0.24000087021867
H           -2.56440420351287        3.35440859548868       -1.50750781901497
C           -3.98271725911129        2.42942429636776        0.68308773841663
C           -2.14548309667332        0.55336270249144        2.14384415722957
N            2.04157117661266        0.26029528213797       -0.69098592088062
N           -0.43808869651091        1.08163579456139        0.65859313129416
C            3.64949108281397       -1.44345520236693       -0.81741871619674
C            5.81650527199043        0.57004034486738       -0.40669062899295
C            6.26004163683890       -0.08141739126659       -1.72450186796568
C            6.69062297575946        1.80844371290050       -0.17827307373826
C            6.04158660483881       -0.38899086759417        0.77113222386127
H            6.07716902323851        0.59200692379362       -2.56002702952216
H            7.32477042708444       -0.29699517517635       -1.68420340447393
H            5.73343011164074       -1.01220213476213       -1.90662406910452
H            7.73110511838236        1.49828051398463       -0.12033625157408
H            6.60117268357867        2.51628909855961       -0.99932882365425
H            6.43971287162457        2.30311076209727        0.75704787737701
H            5.50842733482987       -1.32409378419237        0.63546738254862
H            7.10157710601822       -0.61236518835838        0.86333136965674
H            5.70255137061843        0.06662837489951        1.69924836467201
N            3.86061165197771       -2.55765199659513       -1.00863165039291
N           -2.44233225154257       -0.00834418317842        3.10061546224357
C           -4.80034517340286        1.13416236631348        0.75033789748839
C           -3.94806326135061        3.10789170815289        2.06175005094601
C           -4.68863563163148        3.37308931302086       -0.29643711513656
H           -4.39323016450791        0.44106713288904        1.47823847765359
H           -5.82351963367118        1.36382350785571        1.03808578734323
H           -4.81548223584042        0.64761897209297       -0.22116522294865
H           -3.52220624379655        2.45187425464248        2.81510815895401
H           -3.35778621131115        4.02181875682465        2.02184920633904
H           -4.95860363520005        3.36581577940838        2.36846785216435
H           -4.75222584963883        2.93070069138485       -1.28787645731396
H           -5.70255234220815        3.55051361724198        0.05367783220933
H           -4.18611403079791        4.33582087899184       -0.35713892525108
C           -0.07736450543859        3.20575685253044       -2.41069902860485
H           -0.04614299129760        4.28813482244257       -2.29259068344602
H            0.92234265645109        2.84604319504187       -2.63494409187612
H           -0.72561427522900        2.98717396570458       -3.25750334850055
C            2.12421169943431        3.97810088501739       -0.15836050330214
H            2.74406907957243        4.40843028580209        0.62539645723361
H            2.28685625204486        4.56113061598509       -1.06444884477470
H            1.08230605031404        4.06804426403880        0.13294223249172
