77
 energy: -121.056677978635 gnorm: 0.000575049046 xtb: 6.5.1 (b24c23e)
Si           0.27318013108062       -1.16637453226612        0.83704669989849
O           -0.81451044681246       -1.74754328519751       -0.19526099326118
C           -1.78608217867510       -2.75828114654011       -0.05652741739816
C           -3.03585189545422       -2.31900088028720       -0.77443749193333
H           -1.99529192539998       -2.91985404863005        1.00750727792587
C           -2.93579120098288       -1.61290653132483       -1.96607592206780
C           -4.29024282449084       -2.63241125361679       -0.27010197685239
C           -4.07686766293026       -1.23126682704956       -2.64869699793072
H           -1.95617422035783       -1.35834763876523       -2.34201000499063
C           -5.43032311423771       -2.25133205343166       -0.95544432159016
H           -4.36972723827869       -3.16702142163457        0.66427705931103
C           -5.32649704099461       -1.55350649061016       -2.14702922449256
H           -3.99141563444212       -0.68495625073157       -3.57756620978493
H           -6.40368582207969       -2.49662264367761       -0.55687010583266
H           -6.21752199814212       -1.25774571346758       -2.68148898407297
C           -1.25147716758568       -4.06294560008314       -0.67758106341330
C           -0.10213183850160       -4.55077768456154        0.05318913308827
H           -2.04758623920515       -4.81182007577543       -0.66572631957985
H           -0.96336567981902       -3.86140417993687       -1.71277336165336
C            0.85463277339727       -4.91348922931209        0.67284458535290
H            1.69235584255917       -5.24067440450610        1.21210977542502
Cl          -0.37919352253797       -2.02508365412775        2.65972525863281
Cl           2.23925708691101       -1.75901358815799        1.15679092720234
O            0.86199851800902       -0.25989806555558       -0.75767356480952
O           -0.05418384327720        0.38703340566141        1.49210047578670
C            1.66784939067064        1.81020552461155       -0.09222120804465
C            0.27901853743221        2.21258637287498        0.02565903212365
C           -1.94156866548570        1.51357670489182        0.68155364565070
C            3.13821502283375        0.09265426156397       -0.87141575447631
C            4.26916356844197        0.84294249353222       -0.56961774347971
C            2.77233260070038        2.58387567190855        0.26043177346568
C            4.04689428566048        2.08571734873749        0.03449611812595
C           -0.26806545654765        3.31769672296170       -0.60443722755709
C           -1.64914913493666        3.53052370101291       -0.53965358589688
C           -2.51624313541168        2.62499278368066        0.07459263773113
H            4.88086031168479        2.68701890716515        0.35206218050696
H           -2.03955182984496        4.39266699204131       -1.05003065776018
C           -4.02364022463970        2.82187725897062        0.06797170177156
C           -2.65257734028581        0.46905786825667        1.29359816689934
N            1.89412606578082        0.56177904576900       -0.59840942428525
N           -0.56929501526569        1.39026718612748        0.72479449840656
C            3.13293865832374       -1.15842946768642       -1.53670286030974
C            5.66274622030067        0.30651700366104       -0.84163105284192
C            5.84631395928048        0.10584032093948       -2.35307829562289
C            6.75377643066414        1.26678420801307       -0.35601490190405
C            5.83535112428363       -1.02533748763044       -0.09828539291907
H            5.70279007926584        1.04678424265320       -2.88157988814275
H            6.85361116706358       -0.24999517114481       -2.55410767363091
H            5.14533897300766       -0.62376886259273       -2.74511592330121
H            7.72694828715445        0.83112625634513       -0.56855511776507
H            6.69960080045634        2.22434369785020       -0.86947528430566
H            6.68933940879685        1.42569505467818        0.71762691091429
H            5.13220632883558       -1.77326104627431       -0.44936872456433
H            6.84362269232533       -1.40257723047160       -0.24991122121072
H            5.67102740498827       -0.88636802298404        0.96764576381827
N            3.08501515505183       -2.11621934431043       -2.16590518651298
N           -3.21857823313868       -0.39381344044923        1.80216705433680
C           -4.68665975407315        1.65507712416429       -0.67675048840247
C           -4.52990593183993        2.89028070499030        1.51622672057441
C           -4.43336408816977        4.12250430158182       -0.63236135893403
H           -4.50006759140133        0.70536900107804       -0.18631890123716
H           -5.76212292786196        1.80901434337623       -0.71729026597438
H           -4.30929126397968        1.59204975253194       -1.69521902496807
H           -4.34272119716356        1.96312929036112        2.04795268586705
H           -4.04045486361474        3.70285548766617        2.05023706978211
H           -5.60166252150512        3.07266869070156        1.52109600326910
H           -4.14450065885608        4.11683060585366       -1.68070671285099
H           -5.51539667500580        4.22006499922401       -0.58798609397036
H           -4.00078487615731        4.99116563460632       -0.14119975152723
C            0.55201680387975        4.25024061803713       -1.44142386913770
H            0.69881468445067        5.19548792501486       -0.92016869329377
H            1.52226770727520        3.82819746677062       -1.68333136325125
H            0.02439771029521        4.46562992372459       -2.36845441851387
C            2.61389065128557        3.89614500321072        0.96287973746621
H            3.24517331030471        3.90734177278244        1.84941384910146
H            2.93232454140396        4.71739687849477        0.32250179567497
H            1.58498564553527        4.06139871471114        1.26674848814796
