77
 energy: -121.056185104518 gnorm: 0.000501808367 xtb: 6.5.1 (b24c23e)
Si          -0.42759989314307       -1.88207810612017        0.15240237366729
O            1.10742039520576       -1.40717542977478        0.12590469123537
C            2.37007363345277       -1.83290610485464        0.57829254010308
C            2.81605622934691       -0.99874414558997        1.75924484251939
H            3.05333287057914       -1.65808353833062       -0.26683681747192
C            1.92054655935799       -0.23636035442649        2.49414632533618
C            4.15966895504816       -0.99716585809030        2.12104332782678
C            2.36230030445134        0.52886852068505        3.56005326199663
H            0.87378638711766       -0.24123761082297        2.23537747605324
C            4.59876540804578       -0.23653529584015        3.18940620466873
H            4.86511043912901       -1.59433251157607        1.56030116011999
C            3.70095247432148        0.53546131065982        3.90826985517252
H            1.65322878228321        1.11591902705092        4.12504819096373
H            5.64474640600964       -0.24286527285888        3.45832835834149
H            4.04467012343951        1.13346497399147        4.73925277582047
C            2.42194675688647       -3.32862583586463        0.93567385976984
C            2.02881261162661       -4.13732339284046       -0.19793193418381
H            3.44409436671706       -3.57752690169910        1.23036156303194
H            1.75325150173767       -3.52548987140621        1.77590819945947
C            1.68973960181586       -4.75714575822765       -1.16315603952475
H            1.39306204016810       -5.32151943301069       -1.99558207986498
Cl          -1.06250863366923       -2.61071888085795       -1.57899145140600
Cl          -0.78806832739033       -3.13792361999183        1.68841081638925
O           -1.23800206880567       -0.56259440928827        0.75230276692336
O           -0.15238182475654        0.21081883889323       -1.72313009658243
C           -1.60346737487217        1.61005981542274       -0.07702922866250
C           -0.14583511216382        1.76831342738378       -0.08046447427505
C            1.84198007385279        1.16727821270371       -1.20011570292757
C           -3.42944129046651        0.00538933773834        0.01915479402837
C           -4.35070853583436        1.01220909116727       -0.29990362037251
C           -2.48933659800018        2.60367204751051       -0.39458185030089
C           -3.87067863770569        2.29692529265972       -0.47469039090849
C            0.57346057014917        2.59316331987309        0.77569655169397
C            1.94482974606271        2.72611562439589        0.58630997880612
C            2.60873671987512        2.05584406142998       -0.42968450371469
H           -4.53448841794376        3.10313978566146       -0.72855702487024
H            2.48111994014829        3.37714171458148        1.25412563870372
C            4.07511836365601        2.30188126763456       -0.74451094621144
C            2.34461454663416        0.34062120361674       -2.22921953342984
N           -2.08508033702313        0.34874261109194        0.16495184430394
N            0.50372701579997        1.02330695673597       -1.01349587624340
C           -3.72554821416911       -1.33461878911380        0.24367976234387
C           -5.82478762335862        0.67174155025838       -0.45570238915022
C           -5.98648771717440       -0.36240107928339       -1.57854321357944
C           -6.36173942588028        0.11130090896893        0.86899004688332
C           -6.66676090151137        1.89925717222841       -0.82101981752449
H           -5.48119555756271       -1.29233676660928       -1.33825861058185
H           -7.04135306471244       -0.57793784473717       -1.73128862166588
H           -5.57431805640809        0.02394845004091       -2.50868211890962
H           -7.42397611405521       -0.10073013897141        0.77439812062893
H           -5.85630179281419       -0.80848956438524        1.14491610454385
H           -6.22519350348297        0.83677846464790        1.66905518736381
H           -6.35160160874149        2.32624105044770       -1.77011814066764
H           -7.70676871751138        1.59734384551647       -0.92070070032855
H           -6.61402999298026        2.66088722257983       -0.04636176763230
N           -3.92681875506284       -2.44974265269437        0.47160135647973
N            2.72664481557370       -0.34856835127165       -3.06343838084905
C            4.88257556437876        1.00285872336239       -0.63972477163785
C            4.17296317222359        2.86903638776083       -2.16971516155094
C            4.70302854975598        3.31522973559138        0.21841460285170
H            4.53428440076680        0.25619300150368       -1.34551485850373
H            5.92908330128262        1.20653451141972       -0.85423079320742
H            4.80708169059418        0.59866342072987        0.36698547285042
H            3.81971363645378        2.15189658989025       -2.90499771975566
H            3.58166119760907        3.77873187495843       -2.25892106506550
H            5.20807747821719        3.10889297895952       -2.39994608829976
H            4.67134572345893        2.95169504927775        1.24321584138295
H            5.74616110194874        3.46120303210372       -0.05163628641748
H            4.20637345282596        4.28095631871633        0.15946743500918
C           -0.10348360547857        3.32314017756759        1.89161023528768
H           -0.25353679656125        4.37039939956642        1.63048135419006
H           -1.07221284439586        2.88335610816729        2.11352845496418
H            0.51863815184025        3.29013157090818        2.78333846315305
C           -2.05062501440198        3.99595048631738       -0.72599439167199
H           -2.55410205351223        4.33350950219533       -1.63001043387591
H           -2.32609209055106        4.67716713002814        0.07924920794275
H           -0.97760655773007        4.05409041394557       -0.88294414099442
