77
 energy: -121.055389661912 gnorm: 0.000912472289 xtb: 6.5.1 (b24c23e)
Si           0.43181752613686       -0.64686406951730        0.36045710477477
O            1.83895508058343       -1.37342453434106       -0.01347064485020
C            2.27461057997492       -2.69744252070927        0.11264421128018
C            3.56292152850740       -2.88906499067213       -0.64601050033755
H            1.50192305692368       -3.37001862505181       -0.28990480635188
C            4.42094389804725       -1.82130554281456       -0.86591468402022
C            3.91648048768441       -4.15543711471346       -1.09486765577888
C            5.61788176784201       -2.01961573608258       -1.53178851511408
H            4.13323712942112       -0.83651426066776       -0.53213172110274
C            5.11616798146863       -4.35150557730919       -1.75445555892735
H            3.24609761918108       -4.98794174611258       -0.93007740293006
C            5.97008785421856       -3.28327857228174       -1.97358417534227
H            6.27655336664493       -1.18133554424567       -1.70459700581910
H            5.38333217553046       -5.33941124228230       -2.10181553124610
H            6.90544439977721       -3.43761537908104       -2.49199089798224
C            2.49405627199571       -3.03864219119283        1.60316259049406
C            1.23010040402434       -3.03010253947376        2.30454223279064
H            2.96362248973029       -4.02207032435386        1.68113016066910
H            3.16084077828253       -2.28567929273474        2.03202522618157
C            0.15121938079575       -2.99528895160163        2.82225709812889
H           -0.79298615277733       -2.97314725235577        3.27972300793998
Cl           1.28960747060511        0.43690605021639        1.96160328933596
Cl          -0.76811048019054       -2.16111285847423       -0.56668013221026
O            0.39170684902525        0.48967859275898       -0.92389561574440
O           -1.10263086906710        0.02711468962027        1.12476018091425
C           -1.10662808566684        2.21411244374772       -0.38858693267545
C           -2.18683365976001        1.24152884798106       -0.52962802279253
C           -3.15465826016078       -0.76785761832777        0.35242212130631
C            1.27610494552421        2.56305439918007       -0.32538340146737
C            1.11511610316029        3.87668219631518        0.10682569400662
C           -1.30396631303559        3.52724667172956       -0.00312796191797
C           -0.19176443378626        4.34182141597400        0.23748502303156
C           -3.21651484777913        1.32873426279999       -1.45221081010211
C           -4.19675052928092        0.33641986575219       -1.47098604699747
C           -4.20133807695069       -0.72382353969886       -0.56382119027039
H           -0.38001183390873        5.34239222411326        0.58378438974828
H           -4.95631052218809        0.40373240999866       -2.22977374773206
C           -5.26848484725681       -1.80366699070152       -0.58079661671940
C           -3.01100376435161       -1.70961823730000        1.39182481948507
N            0.17535154383536        1.78880894581960       -0.59647575124531
N           -2.18009646310485        0.18763286512658        0.33753145500763
C            2.50664551029147        1.92999874310698       -0.57419267771747
C            2.31799647598352        4.73637416145026        0.45306298581145
C            3.12812049534021        4.03287523682555        1.55106397857943
C            3.17672450384079        4.94501499446413       -0.80256433584606
C            1.90799734652663        6.11615593328502        0.97935547437515
H            3.52144077793587        3.08120937991879        1.21077953009268
H            3.96260256878328        4.66171613061546        1.85145232056178
H            2.50196436496578        3.84429913998301        2.42001856534152
H            4.02544903558302        5.58057899820636       -0.56275466264895
H            3.55603813762882        4.00349915048393       -1.18589360616021
H            2.59425589864144        5.42998610410620       -1.58405682136608
H            1.31121340460060        6.03064054822946        1.88411163757283
H            2.80445632021139        6.68004637604953        1.22522318001946
H            1.35605653316367        6.68098372930536        0.23124200763177
N            3.49705447048615        1.41632739785208       -0.85228548631984
N           -2.90853151030241       -2.40243838581940        2.30216301145388
C           -4.59221535513226       -3.16748595990321       -0.77761807015048
C           -6.04366801975946       -1.77228388292894        0.74448041641505
C           -6.27230458703114       -1.60410328090995       -1.72123409956070
H           -3.92001887534426       -3.40330446696251        0.04059310838060
H           -5.34726238677209       -3.94749041940497       -0.83697717089128
H           -4.01267854188302       -3.17135913007323       -1.69789120786112
H           -5.39530364121448       -1.97927267833823        1.58970731120450
H           -6.50603081559686       -0.79752383824577        0.89093612951986
H           -6.82804515155244       -2.52475655940744        0.72682857041724
H           -5.77871533192223       -1.63455263902017       -2.68952624749559
H           -7.00086387856937       -2.41072499156446       -1.69460822323262
H           -6.81269815423639       -0.66569070879138       -1.61767184646345
C           -3.26205860485223        2.41563147124853       -2.47994951872812
H           -4.11335174885731        3.07090041510917       -2.30057705060117
H           -2.35264256304150        3.00807733999569       -2.47575515662280
H           -3.38745862357596        1.97610270182912       -3.46753152748013
C           -2.66818694615619        4.08535153139045        0.25885699766424
H           -2.66477763141747        4.62946277448952        1.20081385471985
H           -2.94252694734689        4.78814055463485       -0.52716903100257
H           -3.42112907908014        3.30555549974011        0.31005138493462
