77
 energy: -121.066297144833 gnorm: 0.000392479829 xtb: 6.5.1 (b24c23e)
Si          -0.45033444487197        0.99555061650480       -1.26349531362071
O           -1.09557471269485        0.97555698167594        0.19718220095432
C           -0.90694350981232        1.71765576897640        1.40525814325935
C           -0.17875560590902        3.00511556893133        1.13666592220062
H           -0.29792750660037        1.07233236642539        2.05028150157622
C           -0.76811906531392        4.00744274791998        0.37518590213581
C            1.11985212003966        3.17308438772603        1.59936377766874
C           -0.06474006383139        5.16072484075040        0.07805966008494
H           -1.77315982071814        3.88296779256057        0.00080862778635
C            1.82025389785368        4.32880848599294        1.30252701261179
H            1.58318937454635        2.39331276044677        2.18560099520388
C            1.23032492931643        5.32272351314863        0.54021800972991
H           -0.52913802770250        5.93111046766358       -0.51912447640032
H            2.83101226671296        4.44715717832326        1.66239034159887
H            1.77954002326985        6.22177260891434        0.30317981703121
C           -2.28543049973194        1.93444007029243        2.04599834943633
C           -2.73196365271079        0.73892935575203        2.72835994094378
H           -2.21261359672899        2.75199176754158        2.76809642063967
H           -3.00545356377212        2.20971814714063        1.27102020532738
C           -3.05779296101049       -0.25769782300892        3.30416279114223
H           -3.35017900293439       -1.11595646742902        3.83055126942652
Cl           1.53521934327690        1.35816773404547       -1.30595208316718
Cl          -1.37760425997364        2.21965931465341       -2.54513076283134
O            0.96601009880459       -0.64276076878862        1.85301648455774
O           -0.64404136574115       -0.54163866031368       -1.81949318766339
C            1.00219915980676       -1.82917819859493       -0.09679518485065
C           -0.44294679672784       -2.03017249993025        0.02615733725027
C           -2.58594920311438       -1.64029269552852       -1.02441657028897
C            2.94482690938424       -0.79964224336551        0.76773737647406
C            3.72606775436718       -1.22032488451516       -0.31046869203945
C            1.73544256693957       -2.28645160273876       -1.18979982826563
C            3.08634132468204       -1.98395974415386       -1.27809188133964
C           -1.07319566461966       -2.61507242415343        1.09514198526799
C           -2.48040608807068       -2.68646224891034        1.10959782649085
C           -3.25351106232928       -2.18041441786291        0.07663581175314
H            3.63072558718312       -2.35226972943869       -2.12967102840009
H           -2.94202825394829       -3.14279841161869        1.96564296829314
C           -4.77343059585176       -2.18755682238539        0.11823208166186
C           -3.18216718490805       -1.09753000046460       -2.16327840199953
N            1.61699932276849       -1.09334252733085        0.86865379402253
N           -1.18890779108023       -1.61252764363414       -1.06308924266885
C            3.39716063734324        0.00147298997496        1.84239367418883
C            5.19138189899083       -0.83596429587541       -0.40795334092118
C            5.29584221889439        0.69505752391718       -0.46683537274003
C            5.94943027560325       -1.38130007197626        0.81094315316493
C            5.85120933049191       -1.40428338156766       -1.66848129157135
H            4.95416946816352        1.15287924266657        0.45591268323985
H            6.33046581667917        0.98707749159296       -0.62926875075999
H            4.69058760682601        1.08197405381799       -1.28384253320476
H            7.00310703539078       -1.12533413968228        0.73203812838844
H            5.56922685511786       -0.96350481602734        1.73804071981764
H            5.86196860009960       -2.46546908446230        0.85708778398968
H            5.37589334261244       -1.01989952167355       -2.56752820659982
H            6.89565398619737       -1.10225968095207       -1.68853501429528
H            5.81993661853838       -2.49160893317128       -1.67727960038918
N            3.70781778255087        0.65039674107118        2.73596399982705
N           -3.61265338637577       -0.62673013896228       -3.12538687470912
C           -5.26888631618191       -0.73457342599646        0.08058707483941
C           -5.32459934046472       -2.97731029792963       -1.07690992853643
C           -5.31493103864000       -2.83431762338505        1.39703240067538
H           -4.98845004085041       -0.24565790957481       -0.84754736156181
H           -6.35301113001772       -0.71112695559722        0.16360830997618
H           -4.84316597773270       -0.17754757305218        0.91358520504941
H           -5.04458293819481       -2.52047576977600       -2.02054414113016
H           -4.94772420026279       -3.99840111109750       -1.06052441213143
H           -6.41040350012579       -3.01059183048379       -1.02580060190402
H           -4.99662840629530       -2.28250397806854        2.27698237549171
H           -6.40215929550994       -2.81772129596934        1.36953841452454
H           -4.99923971812963       -3.87178783460694        1.48121017034136
C           -0.29194900333991       -3.18398118303661        2.23319609350877
H            0.58504951954944       -3.72346936014227        1.87850038671373
H            0.05215057765269       -2.36608028226185        2.86926905105250
H           -0.90724630436764       -3.85564913278821        2.82515894662939
C            1.07402515774540       -3.10465562872528       -2.25054872112187
H            1.81492616448410       -3.64841786714892       -2.83053733376234
H            0.36765335779707       -3.80936942530432       -1.81618829940705
H            0.52120296752463       -2.45237815497938       -2.92609468767012
