89
 energy: -135.461949356781 gnorm: 0.000330626407 xtb: 6.5.1 (b24c23e)
Si           0.06129132125470        0.62257051985426        1.16677198247143
O           -0.04500391229059        1.94225831526889        0.23297075555990
C           -0.74126311683780        2.24235739558720       -0.94788393768991
C           -1.43495486104064        3.57713742611394       -0.80317476306961
H           -1.48934456227400        1.46814340090425       -1.14393232391010
C           -1.18479363391272        4.39959146540252        0.28541509789540
C           -2.33988345061819        3.99021303507218       -1.77395463576373
C           -1.83706901820444        5.61498381550979        0.40463767463163
H           -0.48422230241913        4.07557468082203        1.03915762251529
C           -2.98893881817130        5.20494672266712       -1.65380972234663
H           -2.54134626028555        3.35247173775628       -2.62312601883080
C           -2.74013662503896        6.02053245537782       -0.56212151856826
H           -1.63793125234896        6.24581183623396        1.25830173849763
H           -3.69280154025688        5.51627585534338       -2.41252913378110
H           -3.25039745819505        6.96793503298955       -0.46710853409041
C            0.25273917153836        2.27865228495415       -2.12771980521580
C            0.71773814777203        0.95204630406053       -2.46680746047108
H           -0.23678505709039        2.72461913397105       -2.99686838138832
H            1.09850260271780        2.90693691143444       -1.83618197324747
C            1.10257571796817       -0.15065744451552       -2.73040135456831
H            1.43402407527333       -1.11885563237564       -2.96291136065079
Cl          -1.34189710303568       -0.08809547416276        2.53627881544560
Cl           1.07231682618336        1.79600860470342        2.62353321165226
O           -0.67307228556094       -0.38223368855604       -0.17005294054404
O            1.40550995740105       -0.40429722496020        1.23655694359970
C           -0.18089917011368       -2.62885606277518        0.22217195300467
C            1.20824179878867       -2.43285337989457        0.00669545978247
C            3.18047476203881       -1.03011765064761       -0.08205617213328
C           -2.45314976982908       -1.83583723154952        0.05147632056777
C           -2.98095984375603       -3.07613695384693        0.34329879568142
C           -0.70374296944343       -3.89947363931945        0.53888162394996
C           -2.04403268785212       -4.10163844946320        0.64159988572971
C            1.99065678518895       -3.45437215825960       -0.56998262578603
C            3.28190085279602       -3.24176902410239       -0.94698983849622
C            3.91414150978609       -1.98067308616846       -0.75937411287405
H           -0.01322584736687       -4.69659586952336        0.76099179319842
H           -2.39686193951252       -5.07351027117340        0.94284151000571
H            1.51935930157799       -4.40225240083817       -0.77409617066588
H            3.81808094332009       -4.05047504043193       -1.40976798090244
C            5.33061098402941       -1.73902040997297       -1.27005682886267
C            3.64853944139768        0.30005071287852        0.38083256506373
N           -1.10982013886638       -1.63565623441569        0.05101136701794
N            1.89754941677535       -1.27559207250243        0.30364179170353
C           -3.19692293901011       -0.64024448317816       -0.41775986314579
C           -4.45176953058599       -3.46714558954577        0.39762382997748
C           -5.44391409993944       -2.37885054985405       -0.01380171454602
C           -4.67967146054832       -4.66243904647041       -0.54369058935308
C           -4.77628066545624       -3.86544645742376        1.84654208075618
H           -5.25876598230234       -2.02888727082065       -1.02500821427720
H           -6.44977104006821       -2.79415329336511        0.01871103529151
H           -5.40964094611770       -1.53289058702882        0.66392833652674
H           -5.72694143473262       -4.95396879708634       -0.51946573796807
H           -4.42470249903959       -4.38767685062547       -1.56510782691539
H           -4.08619190097317       -5.52759471356722       -0.26437826776544
H           -4.56908975700971       -3.03292609650978        2.51467550672463
H           -5.82872175956100       -4.12530454765403        1.93206320399113
H           -4.18902820485874       -4.71848613873257        2.17383402349825
C           -3.77413908117881        0.28099546698686        0.44642102138726
C           -3.25857059284729       -0.42476336974601       -1.79155261095289
C           -4.51313288498393        1.58705077800955       -1.42979617001182
C           -3.92510792023143        0.67863339456018       -2.29384724170093
C           -4.42408243200076        1.39189391631125       -0.06235157547504
H           -3.69868612245614        0.13084449236705        1.51132888672647
H           -4.86321985334739        2.10890100378405        0.61434276771610
H           -5.03190554815561        2.44960419460533       -1.81976669099872
H           -3.97891981405345        0.82873615843875       -3.36251091092605
H           -2.78728986472013       -1.12746513121424       -2.46456763101078
C            4.20635755960913        0.43236424284910        1.64739490860989
C            3.41225497651204        1.43334940239592       -0.38708368812036
C            4.32765345934949        2.80897750151096        1.35227308951020
C            3.75733852020799        2.68190286822473        0.09813053890706
C            4.54987625875110        1.68323271227441        2.12559386667108
H            4.34708278065871       -0.44333937462091        2.26379341751050
H            4.97168973142059        1.77914410122435        3.11407190567162
H            4.57992321949762        3.78584037577408        1.73527782773825
H            3.56666910415451        3.56018604130277       -0.50122408374142
H            2.94630647604552        1.32610027955617       -1.35487443003779
C            6.28899724421209       -1.51507751704186       -0.09187571012560
H            6.05963201650373       -0.59383001781462        0.43331472216808
H            6.22566440607930       -2.34322146558767        0.61093440677815
H            7.31126197207690       -1.45322995906052       -0.45809295030394
C            5.35735531071482       -0.51783596401529       -2.19996385001165
H            6.33238754159652       -0.44016209016054       -2.67565869816413
H            4.60335685541053       -0.61374724541691       -2.97840233518785
H            5.17574094849708        0.39996842829592       -1.65186218497114
C            5.85797852959026       -2.93634635104601       -2.07261079581806
H            5.21773905007350       -3.15648058906166       -2.92380524000972
H            6.84768543693734       -2.69676093589921       -2.45491063535782
H            5.95354694479059       -3.82321917338993       -1.45071504336089
