89
 energy: -135.457770998323 gnorm: 0.000370399250 xtb: 6.5.1 (b24c23e)
Si          -0.29466434512762        0.49418588171156        0.49627897675263
O           -0.60286295311475        1.87153468853829        1.30007637770657
C           -0.45128636365237        3.21288066498845        0.91362705609121
C           -1.50780031654771        3.63798487642235       -0.07435005098090
H            0.54463915940212        3.34963117216353        0.47395362013796
C           -2.75860734784660        3.03894395083760       -0.06952946437137
C           -1.24583999964971        4.66108613557200       -0.97574803224917
C           -3.73189070059006        3.45018431536348       -0.96223000606458
H           -2.95894114742138        2.23570993163005        0.62449146053295
C           -2.22094994223611        5.07469345986541       -1.86401375074078
H           -0.26853514488761        5.12191900864093       -0.98727300858544
C           -3.46663097594515        4.46947943720117       -1.85938521942810
H           -4.69943971555682        2.97111192218712       -0.95506104217377
H           -2.00666258376063        5.86649572888574       -2.56702063182825
H           -4.22640413040917        4.78931145472960       -2.55769684560584
C           -0.57166670588882        4.07435817067116        2.18563051993589
C            0.51723622332664        3.81893006016721        3.10191768031935
H           -0.57709377514214        5.12944544211191        1.89875833378963
H           -1.51884451084042        3.83243640217203        2.67442755610727
C            1.42780857956224        3.59470391699030        3.84454073078038
H            2.20871920540660        3.39540167636974        4.51495867005860
Cl          -1.11003675706485       -0.48928264556668        2.23344487116701
Cl           0.08917090198028        1.44799522136985       -1.41029603794541
O           -0.86643321506812       -0.75251921070430       -0.55391525708410
O            1.25852758942549       -0.08779725088467        0.84633186264042
C            0.28040694279298       -2.69765235900164        0.01537259751555
C            1.55378264866272       -2.13899489915569       -0.30421235350083
C            3.19644259259217       -0.35739865282472       -0.37208454714923
C           -2.13558844296315       -2.59500802837062        0.05357986026970
C           -2.25896806521881       -3.91576906276720        0.44214228915505
C            0.16814192189218       -4.04300810959535        0.41212945869835
C           -1.04500281213511       -4.62059055870624        0.64317713133899
C            2.51371517848057       -2.94806696774269       -0.94313512888021
C            3.72743334015412       -2.46537729397536       -1.32974478796367
C            4.11022883021082       -1.12191420044402       -1.06830557064570
H            1.07351027255840       -4.59968918581954        0.59239092719829
H           -1.06317913958256       -5.63801393542141        0.98967278572265
H            2.23761520733497       -3.96144977852114       -1.18601798863627
H            4.39604298154969       -3.12729200741973       -1.84910998779276
C            5.47280241848914       -0.60466972490276       -1.51943813852459
C            3.41417901624786        1.01183273764214        0.15937009593398
N           -0.91518442060389       -2.04183160252099       -0.13620578572869
N            1.98456335631001       -0.85997822902695       -0.01171025371404
C           -3.23424380286896       -1.66376780155726       -0.30444957251964
C           -3.60123679959997       -4.61313708283418        0.63600413921517
C           -4.41658446115024       -3.90925358738667        1.72982883623971
C           -4.38727463931191       -4.61612146673301       -0.68328146978586
C           -3.42532023697441       -6.07606526831020        1.06497479777763
H           -4.81591832681707       -2.96568133354274        1.37581124506664
H           -5.25136179941513       -4.53919384656114        2.02901933079556
H           -3.79558213389554       -3.71933608136462        2.60170570770922
H           -5.30719824564330       -5.18283921078776       -0.55925026984519
H           -4.64889032565773       -3.60981248320971       -0.99247319422924
H           -3.80109652288960       -5.08216400927025       -1.47282202970407
H           -2.92107906268912       -6.14735923815570        2.02545597819474
H           -4.40692534649391       -6.53248262195822        1.17182754642930
H           -2.87625961203615       -6.64784538972237        0.32037363818094
C           -3.90093630933969       -0.90727198086724        0.65105870238570
C           -3.53869931926622       -1.49073663109721       -1.65190618965156
C           -5.22090190384560        0.11690285644848       -1.07645800750898
C           -4.53275679186291       -0.60891635431154       -2.03373493639595
C           -4.89419650320140       -0.02468416694305        0.26107744581707
H           -3.61546520364482       -0.99172809479744        1.68734920948163
H           -5.41198148729211        0.55650552151211        1.01002889113856
H           -6.00492724024194        0.79662421280455       -1.37648045601363
H           -4.76625892209899       -0.48590265595888       -3.08072043173181
H           -2.99519113058858       -2.05182185292594       -2.39839127355615
C            3.87861195487470        1.15291207195359        1.46357500590277
C            3.08372798866630        2.14200421765289       -0.57698087308358
C            3.72196046458406        3.53813853692737        1.27255874931868
C            3.23924186084780        3.39895093889771       -0.01669717470075
C            4.04120836974094        2.41154949203124        2.01102264851309
H            4.10543256905906        0.27225818417817        2.04686988966303
H            4.41492020443958        2.51035220233943        3.01890043820899
H            3.83646844846008        4.52009544942131        1.70614601854387
H            2.97669815884115        4.27230808667287       -0.59525328843805
H            2.67553601003771        2.03825965970467       -1.56953541408913
C            6.33820946505124       -0.26017150326287       -0.29860423290333
H            5.92939085584143        0.58055042768115        0.25188763062909
H            6.40753039214039       -1.11553029090303        0.37033335267713
H            7.34200157431732        0.00260884352066       -0.62447640355244
C            5.30907569212111        0.63563191416317       -2.40868492253913
H            6.26361526206748        0.88774681565316       -2.86523034996647
H            4.58980231734536        0.44210338333011       -3.20108701400052
H            4.97389561087733        1.49239816053401       -1.83529242289531
C            6.23464715424439       -1.65428947691963       -2.34030538879154
H            5.67695615488523       -1.94187378834547       -3.22834012859791
H            7.18090364581723       -1.22816421438496       -2.66615028478628
H            6.46034611741276       -2.53850409616999       -1.74896044486645
