89
 energy: -135.370796509240 gnorm: 0.000943554919 xtb: 6.5.1 (b24c23e)
Si          -0.13222093532347       -0.71223932073265        0.54731668282437
O            1.38642292462288       -1.72253358318841        0.50795684942565
C            1.98997564354712       -2.12419291726040       -0.51797118530545
C            2.89725306509905       -3.22122258916881       -0.49816353736392
H            1.85819820265912       -1.58210405523481       -1.45444515433631
C            3.11653430448869       -3.95086762392839        0.68381251991999
C            3.58754166958437       -3.59245324820367       -1.66533568177526
C            3.99911683103749       -5.00774808191439        0.69200207045950
H            2.57226170453125       -3.66126808471982        1.56916173867521
C            4.46640200211152       -4.65217528036987       -1.64396441029795
H            3.41734701805524       -3.03373045963170       -2.57421843750543
C            4.67821091543109       -5.36247188597375       -0.46759980668758
H            4.16451499633989       -5.56612871791909        1.60167409427533
H            4.99396769010480       -4.93555008419890       -2.54347731677833
H            5.36933367034951       -6.19227253284544       -0.45717569536271
C           -0.11165459359391       -3.93394258526768       -1.72648025633921
C           -0.49503146721009       -2.72274087643168       -1.44796296538959
H            0.74767976965847       -4.14068498737768       -2.34375124363890
H           -0.66017532820967       -4.78817342474600       -1.36362615233814
C           -0.83440471443973       -1.54112414266957       -1.06332167812322
H           -1.51495732144499       -0.95636349772403       -1.66737408215209
Cl           0.80440535599276        0.37340206781827        2.18537781493375
Cl          -0.97788342443903       -2.19281154943191        1.86266919527826
O            0.58391122474643        0.52702821591301       -0.68623965834820
O           -1.52640717366638        0.39603212802401        0.82987715184033
C           -0.33026330383417        2.61633514197011       -0.34925996451526
C           -1.65543083489617        2.15294663568570       -0.67507288688387
C           -3.48670697954479        0.62849265911581       -0.35916561845002
C            2.02566932786600        2.24296629190659       -0.12825159766824
C            2.26595838699066        3.57076557015689        0.18510742924240
C           -0.11298733549846        3.96935981051175       -0.07146388606581
C            1.13997831082826        4.42436347726387        0.22408523079586
C           -2.47471192467134        2.89819414577543       -1.52771143523535
C           -3.75540229787470        2.50349903535306       -1.80400601128306
C           -4.31509442932480        1.35017526159320       -1.20587549438668
H           -0.96326738587967        4.63166872288402       -0.03838748985040
H            1.26145642597573        5.46105856340077        0.48850658506654
H           -2.06151521863474        3.77809974499410       -1.99511139927727
H           -4.33374890705949        3.09673537215953       -2.48858488526272
C           -5.77439356278049        0.98363070364714       -1.46315549488644
C           -3.85070643708177       -0.56915498901268        0.43752642927504
N            0.76439699137425        1.80653790105436       -0.36504289662671
N           -2.21287529662972        1.03575090052506       -0.11506629639174
C            3.05170287723965        1.19966091814277       -0.37093810303426
C            3.60859561761248        4.21948103939209        0.50129848310344
C            4.83720521636988        3.31813279644944        0.37639069477434
C            3.82419516507855        5.40348077636726       -0.45755884173327
C            3.54763666472115        4.71643340663316        1.95497001965272
H            4.93225947470713        2.90321297711823       -0.62256792699942
H            5.72618941604904        3.91340038051916        0.57829003983283
H            4.80842772850751        2.50614884295848        1.09434077461125
H            4.78160816356002        5.87409180967179       -0.24756615285772
H            3.83462490230076        5.05314998491929       -1.48759297766619
H            3.05336795489835        6.16193160610804       -0.36208828998779
H            3.34048910390781        3.88259157280818        2.62127791282986
H            4.50131683815256        5.15708260739876        2.23555557391897
H            2.77348905053088        5.46505178772724        2.09630831434849
C            3.61260973744047        0.45469784117876        0.65854922843627
C            3.43293430209765        0.95264967679846       -1.68559859419351
C            4.96509782045216       -0.73183286201366       -0.93416729366698
C            4.39298678299788       -0.00418484343801       -1.96334520645503
C            4.56380705899869       -0.50823903459032        0.37188655367644
H            3.28093757133265        0.61854268478558        1.67122180630446
H            4.99347008426208       -1.08839861351726        1.17446673286576
H            5.71357754690675       -1.47969778965969       -1.15023584135510
H            4.69361519822263       -0.18042283551900       -2.98603386604953
H            2.98385215914592        1.52017129522605       -2.48916283635264
C           -4.12248021385190       -0.40438937484688        1.79314770791277
C           -3.82223667274767       -1.84840064270840       -0.10176630509397
C           -4.38829875612074       -2.77340514707518        2.03901339798174
C           -4.09657805096952       -2.94340685224327        0.69862757784347
C           -4.39672757504364       -1.50160001817704        2.58555482724546
H           -4.10776406535357        0.58703858598002        2.22174124286349
H           -4.59834980932466       -1.36328956049687        3.63684199823676
H           -4.58539364156244       -3.63128881350554        2.66321725214138
H           -4.05968533967959       -3.93375685976932        0.27137550425126
H           -3.55554860054271       -1.99894485418038       -1.13659323014510
C           -6.54413706922828        0.92909736136393       -0.13580105933844
H           -6.19166810827662        0.12162030855497        0.49681979492390
H           -6.43495417193239        1.86753597145194        0.40377770031200
H           -7.60124582943400        0.76838128862013       -0.33361821826429
C           -5.87445706762443       -0.37127348500150       -2.17754785339625
H           -6.89632941639684       -0.53273794077082       -2.51353502255030
H           -5.22136739085498       -0.39345071392437       -3.04766140307783
H           -5.60569589276606       -1.18484456327574       -1.51325378919984
C           -6.47444743812809        2.02222743335174       -2.35086889119001
H           -6.03051537759744        2.06378432240937       -3.34277592270617
H           -7.51727514504646        1.73704274095998       -2.46959535672302
H           -6.45251636236470        3.01135095601270       -1.89948932951203
