89
 energy: -135.459370152435 gnorm: 0.000659040526 xtb: 6.5.1 (b24c23e)
Si           0.01936050683420        0.38550654726341        1.14215209050437
O           -0.63050199679369        1.61886559839817        0.31856051353226
C           -0.85785331253772        2.95853307382680        0.67506469454912
C           -2.07968008396158        3.46740393953376       -0.04527651545630
H           -0.99980372978208        3.02482962432249        1.76086204602485
C           -2.33660799982256        3.06941145581986       -1.34958249483507
C           -2.91812004605261        4.39163203431937        0.56263184184434
C           -3.40515558981104        3.60742443068349       -2.04329304039909
H           -1.69403978519646        2.33287380526638       -1.80346574463607
C           -3.99280156144185        4.92117036181878       -0.12938701507018
H           -2.72535614337154        4.69913464144482        1.58081254079114
C           -4.23319052637906        4.53670074831471       -1.43747521639564
H           -3.59224079302113        3.30200285497317       -3.06258480143250
H           -4.64132837703370        5.63937319575689        0.35116650732135
H           -5.06683267035663        4.95855814912022       -1.98064777347375
C            0.35732880612201        3.84169832017816        0.31856521210249
C            0.61218341545607        3.87505473149330       -1.10288124273860
H            1.22967329129415        3.44293750138071        0.84162707735715
H            0.16206575000079        4.85531561276367        0.67824110396178
C            0.81695278736817        3.89631289291506       -2.28194422738666
H            1.00510101703207        3.92211441717062       -3.31352594157896
Cl          -1.05731173398761       -0.69860518138498        2.56097303756877
Cl           0.99294320445141        1.58427390409110        2.68031197754576
O           -0.56584839259141       -0.60386493278803       -0.23586465580274
O            1.56476146230686       -0.29359664628828        1.01687433227157
C            0.22976627961819       -2.76553386247434        0.08036077981530
C            1.56964220712093       -2.37641122204619       -0.17720560009116
C            3.35287087587976       -0.74674153086707       -0.34011561189367
C           -2.13406661913818       -2.27645950001695        0.04520373853979
C           -2.47745680749956       -3.58664659455963        0.31115502772811
C           -0.10322230242187       -4.09891090223244        0.39684501616913
C           -1.39974516569976       -4.48245662057819        0.53806773334824
C            2.46054287787675       -3.29848408690830       -0.76704177127935
C            3.70448300368738       -2.93808376980774       -1.18362661714967
C            4.18445140425754       -1.60833307455247       -1.02214388356115
H            0.69419595308184       -4.79754329162928        0.58931868444557
H           -1.60553113961262       -5.49799658264807        0.83177113950694
H            2.10625790048764       -4.30007830883782       -0.94721680169786
H            4.32164905471041       -3.68316038668896       -1.65143758303861
C            5.55286151263593       -1.20949325395743       -1.56680309272185
C            3.69247907823574        0.62663769300865        0.10974342583249
N           -0.83055631815434       -1.90852906725390       -0.04132476618465
N            2.10992038735579       -1.12941382472064        0.07258066327056
C           -3.05964157565825       -1.15859025018370       -0.25929205187095
C           -3.87839114938887       -4.17618662612963        0.41281692547714
C           -5.02597240012232       -3.23070576550373        0.05548812220605
C           -3.97610465829656       -5.37562284614852       -0.54618120255837
C           -4.08958831214251       -4.64027941579557        1.86282428844087
H           -4.90890320684017       -2.81881118887660       -0.94240125557390
H           -5.95941290841199       -3.79040836144840        0.08187884389085
H           -5.10591437906111       -2.41426074763335        0.76444261776258
H           -4.96853619723733       -5.81538579972493       -0.48283921895854
H           -3.81182477094136       -5.04812341206629       -1.57054505510811
H           -3.25288966576594       -6.15167979111029       -0.31576853503816
H           -3.96432180688630       -3.80087100631251        2.54244137796877
H           -5.09508986514530       -5.03671603232236        1.98219869669953
H           -3.38331393496027       -5.41521978321876        2.14641338134819
C           -3.70349482405572       -0.44044671622732        0.73977544389487
C           -3.24936884082300       -0.80272486835456       -1.58999856188449
C           -4.75938228327084        0.93486593614229       -0.91996491508419
C           -4.10642236847340        0.23117695776172       -1.91700405729583
C           -4.54429025002666        0.60621455709007        0.40635486990129
H           -3.53595611089234       -0.69911292463283        1.77313333725283
H           -5.03601742149355        1.16581949619021        1.18781454180039
H           -5.42614976893292        1.74424259983384       -1.17499047035444
H           -4.26123074361880        0.49042843462365       -2.95387726031575
H           -2.73221478357099       -1.34805525010058       -2.36700244835304
C            4.29573359758016        0.80374748618080        1.35096093042544
C            3.33518795102040        1.73714705243649       -0.64334927682081
C            4.26494011553551        3.17949879389987        1.03561836852981
C            3.64005312311871        3.00839320267229       -0.18730222447433
C            4.57891857594060        2.07610226210303        1.81058818392311
H            4.52371890841738       -0.05810407953468        1.96032425270973
H            5.03571412210806        2.20495312733782        2.77976769910352
H            4.48780486119934        4.17328193031890        1.39380146295346
H            3.36725128956824        3.86409091548247       -0.78629318170938
H            2.80767190010251        1.61171568108785       -1.57741914560518
C            6.50801669740854       -0.85923406007950       -0.41685492491721
H            6.20306042194672        0.05126135384343        0.08784009904218
H            6.53901620520328       -1.66841850154154        0.30966110672007
H            7.51209791332200       -0.71110446016531       -0.80774806443281
C            5.41802502623168       -0.00991232621708       -2.51491422191478
H            6.37407198067923        0.18649840398810       -2.99494055299373
H            4.68281291161885       -0.22001713412701       -3.28889728465877
H            5.11867307134117        0.88582187000091       -1.98203141728550
C            6.19844224315606       -2.34923057045965       -2.36709792938426
H            5.56806349781524       -2.65671303038392       -3.19819380775826
H            7.14324446894760       -2.00046757723261       -2.77799776247154
H            6.41344766266548       -3.20825542909494       -1.73615551046845
