89
 energy: -135.383805402382 gnorm: 0.000732741645 xtb: 6.5.1 (b24c23e)
Si           0.03828579070104        0.59559970450052        1.53435181796073
O           -1.22660293817352        0.78042907565108       -3.01070606621472
C           -0.73086163495768        1.78744531421016       -3.46107277705691
C           -0.58996919129702        3.06359264592337       -2.76907520340647
H           -0.32699596320497        1.79494470956202       -4.49612318541218
C           -0.97909833540445        3.19346461889194       -1.43412568810088
C           -0.04218949888475        4.16378603833857       -3.43496604183709
C           -0.81362354184892        4.39461161461861       -0.77390004058140
H           -1.38642945315179        2.34182695660616       -0.91535291063790
C            0.11267116096579        5.36462631754559       -2.77329099027831
H            0.25994818533659        4.06582582160685       -4.46896383681416
C           -0.26877271997300        5.47929499718090       -1.44283722352220
H           -1.09888461599385        4.46725787757480        0.26375976180555
H            0.53624075445649        6.21403491253389       -3.28923349992079
H           -0.13644635695447        6.41942645687488       -0.92825793215361
C            2.44690656087699        1.94648844167127       -1.30790485384465
C            2.00012786573764        1.83232642931322       -0.09561541998026
H            3.24448577589180        1.32594827278086       -1.68445462609580
H            2.04559132966217        2.68154750864461       -1.98616624808602
C            1.53320949553316        1.68780447750770        1.10109417446825
H            1.94304512615795        2.27413230945204        1.91003261993467
Cl          -0.27746470561881       -0.30565999140182        3.35172653164401
Cl          -1.12715768626259        2.36573874414220        2.06349156204717
O           -1.03414357944051        0.44116889608663        0.23597693337985
O            0.82378846947996       -0.98263799069945        1.10540723269209
C           -0.55085415348054       -1.32222786041154       -1.28977074389946
C            0.86248639199528       -1.24459748904311       -1.21503332616807
C            2.89208386550274       -1.23853015143833        0.09888100207651
C           -2.75977253546748       -0.92685408667344       -0.39844628151520
C           -3.35362601021269       -1.81425527702979       -1.26998870465247
C           -1.16362019558297       -2.14007203309906       -2.26122759211575
C           -2.50314146154586       -2.37872847915190       -2.25679654692208
C            1.67112888110260       -1.37420235297942       -2.36166136332877
C            3.02486427392838       -1.46301225821197       -2.26548230209816
C            3.68623808884656       -1.47068833765225       -1.00602300405030
H           -0.53301679920568       -2.62585487643938       -2.98736458855535
H           -2.90892256153412       -3.02472710569233       -3.01422065824968
H            1.19069307515430       -1.35368475458465       -3.32567483006257
H            3.60309874481854       -1.52410320968032       -3.17099860104991
C            5.19284913413613       -1.70566738536663       -0.98323770896588
C            3.34151598864091       -1.10228682135416        1.50397034230947
N           -1.42209720659910       -0.68023774074327       -0.44329735808141
N            1.54191715290222       -1.13555816153529       -0.02482213940079
C           -3.43296573947414       -0.10975331988598        0.64144784973001
C           -4.83422112694018       -2.17596765559774       -1.21754108138535
C           -5.69559213321275       -0.94321802865126       -1.52664435090437
C           -5.19052783412688       -3.25691006282409       -2.24705311369753
C           -5.19495701244576       -2.72932442165785        0.16809081301239
H           -5.36009035406209       -0.46959246339129       -2.44667269767239
H           -6.73387468341006       -1.24260981453519       -1.65193542736791
H           -5.64684105675870       -0.21681013278485       -0.72239852859477
H           -6.24049708139155       -3.51888083734698       -2.13554391751133
H           -5.04707995472806       -2.89960893757728       -3.26386892761326
H           -4.60460707044699       -4.16008426472371       -2.09270555341476
H           -5.09712126158906       -1.97033359720559        0.93669006475844
H           -6.22536948294686       -3.07784405096789        0.16659672703568
H           -4.54986033352404       -3.56841042043247        0.42060062600759
C           -3.43096906380579       -0.53311849100356        1.96578082761988
C           -3.94390939948373        1.14248246352374        0.32064049546601
C           -4.50195642492310        1.50884109621771        2.62426041612599
C           -4.48258540029379        1.94375434060173        1.31044718937691
C           -3.97145288996350        0.27328011643051        2.95099230368827
H           -2.98908122307451       -1.48429540583087        2.22578495882436
H           -3.95340629954756       -0.05829599723082        3.97778771141976
H           -4.90755758884282        2.14364442976039        3.39710457810267
H           -4.86798777802389        2.91950149791334        1.05601743141029
H           -3.89348696204537        1.49216843287668       -0.70031664647112
C            3.03542050116327       -2.09905277615302        2.42403657266355
C            3.98535015685638        0.05154914225411        1.93547322070242
C            4.02480915234570       -0.79907156533615        4.17887798982287
C            4.32687920180190        0.19832299220892        3.26800488862190
C            3.38048996220867       -1.94823646208285        3.75363644915420
H            2.51971861212384       -2.98862498604253        2.09469078060331
H            3.13405591768670       -2.72451289138025        4.46183458702068
H            4.28365575458309       -0.67715283733432        5.21978706718252
H            4.82258946886766        1.10031073196092        3.59522358423418
H            4.20274286960693        0.83836435390177        1.22959445173435
C            5.68786339082665       -2.33411738283135        0.32446396227547
H            5.65592568216011       -1.63418531040527        1.15103457400097
H            5.09221203139620       -3.20642995886216        0.58154475159301
H            6.72113741273555       -2.65219104582464        0.20173069343888
C            5.90861621162392       -0.36611469426576       -1.20883522820219
H            6.98399753250563       -0.52244776136883       -1.25201454403600
H            5.58978318421784        0.08747812140905       -2.14520921932098
H            5.69429497455275        0.32588420574388       -0.39934716931369
C            5.58881899972997       -2.67150090277176       -2.11503014959435
H            5.52573544862594       -2.20610692456769       -3.09441108667757
H            6.61982314230694       -2.98817948304235       -1.97739398795931
H            4.95632358065324       -3.55607881899778       -2.10413762092463
