57
 energy: -99.572710310704 gnorm: 0.000638347228 xtb: 6.5.1 (b24c23e)
Si           0.03570048039797       -0.95647888657211       -0.25969996933372
O            1.33209069096964       -0.14336989538688        0.30039771557214
C            2.33336288299069       -0.52793623325206        1.21212324804498
C            3.31873572182267       -1.47960509646022        0.58519902624182
H            1.86303866098100       -1.00968302439093        2.07754697507660
C            3.72229538964569       -1.29886444638292       -0.72998143228293
C            3.83358659482000       -2.54103088083336        1.31589991182540
C            4.62240886952486       -2.17282011225443       -1.31176836600782
H            3.31240366364418       -0.47865606005235       -1.29956066454330
C            4.73987763168119       -3.41028249467385        0.73601037007918
H            3.51034740553919       -2.69398501588717        2.33509365036340
C            5.13482118947482       -3.22910075471530       -0.57864734441931
H            4.92112915442050       -2.03086318971363       -2.34010767629148
H            5.13063786834178       -4.23834366311082        1.30919271426901
H            5.83504534582487       -3.91453915212313       -1.03314941762393
C            3.04498754734839        0.75942652890361        1.67170261754717
C            2.11918675375752        1.63083699861716        2.36094649837716
H            3.86825984123189        0.49020699594966        2.33781701974278
H            3.44780007731757        1.27345547814129        0.79503642300463
C            1.31355395431320        2.31657314234125        2.92031628577096
H            0.62482529679144        2.92528096293113        3.42526018118403
Cl           0.02618987816144       -1.94489660813242       -2.05698049915289
Cl           0.27526348193652       -2.73422293776707        0.92264347086619
O           -1.37311691148946       -0.68459584426338        0.67565734825023
O           -0.39682840551617        0.51196187810699       -1.25879747076199
C           -2.55748679226881        1.31367662890327        0.21046327162887
C           -1.37981756645219        2.11642870604821        0.10939201219818
C            0.80246497370375        2.44943230749933       -0.81302586461867
C           -3.61424392583841       -0.84578018183706        0.11412780269809
C           -4.88782945556953       -0.24055201598693       -0.00678949803908
C           -3.83325118854339        1.91872618556132        0.17728833359363
C           -4.96966700864897        1.17836622463670        0.07322827022180
C           -1.29940106674690        3.38876882425527        0.72062436282380
C           -0.18060081407280        4.15292698683006        0.61727076238688
C            0.91800154906905        3.69946242481879       -0.16295473865413
H           -3.87947200747127        2.99575905580736        0.16411451282589
H           -5.93707926643496        1.65177854841383        0.01746009529619
H           -2.13103841546458        3.70939800967589        1.32757408197989
H           -0.10657783179792        5.10283932196501        1.12322365120554
C            2.09802764223912        4.43402130761995       -0.32395418058473
C            1.83032437040120        1.99596033423939       -1.64727230394341
N           -2.51031211034332       -0.04925425985134        0.27697305520583
N           -0.32616894363945        1.70417653234684       -0.64102203805488
C           -3.49571190852451       -2.23763742904876        0.08814240048402
C           -6.00834981076270       -1.05875450432876       -0.18224590390357
C           -5.87667331732225       -2.42961032324944       -0.22754035925005
C           -4.62094109164532       -3.01458630183661       -0.08712886557141
H           -2.52713530101173       -2.69407409671983        0.20706982266683
H           -6.97875539439779       -0.59520864612363       -0.27829862563091
H           -6.74782272360168       -3.05139945273932       -0.36487357057784
H           -4.52153885163296       -4.08835703287698       -0.11513697055942
C            3.11843100455557        3.95880145189657       -1.11653089203378
C            2.97561124848141        2.74485007229747       -1.78855591661112
H            1.69864747920477        1.06138747340320       -2.16706950053428
H            2.19255030798293        5.38231030864619        0.18305040595292
H            4.02682715872297        4.53038037718990       -1.22987806665146
H            3.77107099390351        2.38987347352568       -2.42648816174838
