57
 energy: -99.482581814968 gnorm: 0.000647884910 xtb: 6.5.1 (b24c23e)
Si          -0.90796194406788       -1.45642676302569       -0.52480040098784
O            1.03494008384158       -0.72238010685046        0.78840115727835
C            2.16784476242732       -1.14743347775210        0.65102119983302
C            3.34733317690378       -0.50625016028198        1.21528803099566
H            2.35464074766474       -2.06483226184499        0.07477072346664
C            3.21342605875616        0.63370330127945        2.01272893101304
C            4.62196118436735       -0.99719406768955        0.92744390841645
C            4.33286325833201        1.27033507812387        2.50629138007754
H            2.21993864068684        0.99586777620918        2.23173668552969
C            5.73850559796943       -0.35422114149776        1.42352551783919
H            4.72387450540935       -1.87910562483193        0.31253072978602
C            5.59629945541635        0.77953705009624        2.20969456754904
H            4.22688384803448        2.15015258102357        3.12327561159865
H            6.72442263186967       -0.73397292056638        1.20037976318932
H            6.47240370148079        1.27962321895271        2.59516936160325
C            1.49317560140469       -4.65298670029511       -0.82033756974935
C            0.86302580915776       -3.60376851917184       -1.24753871449438
H            2.51808837707931       -4.62183562871371       -0.48596274691075
H            1.00627782929299       -5.61311828669258       -0.78151459306483
C            0.20457343338430       -2.56016416430723       -1.63229992435705
H            0.20182041637143       -2.29258671125194       -2.68090040565022
Cl          -2.67479235023674       -1.61073024990673       -1.66513933362705
Cl          -1.08822328766495       -2.88582165542996        1.02449589557661
O           -1.55307689516256       -0.32966704892531        0.67803395121687
O           -0.33534499190814        0.00040465173124       -1.48001624485929
C           -1.80030640086912        1.87089397603562       -0.05571734025686
C           -0.39116982322544        2.00075168899870       -0.28543625686785
C            1.66165207508400        1.13763160979811       -1.15879449409165
C           -3.69304647804339        0.53352527626577        0.54084938008859
C           -4.56685451481896        1.61948658290977        0.29724913871302
C           -2.65519416353516        2.98100032033956       -0.23615364848888
C           -4.00223853487750        2.86373697393187       -0.09143411749018
C            0.28887894041296        3.16271880425182        0.12999458266616
C            1.63266981392612        3.29848532528453       -0.03637609595139
C            2.36706135044014        2.27047642565522       -0.68888198516249
H           -2.21334693298889        3.90989357833071       -0.55977031737533
H           -4.65552906755110        3.70199886494624       -0.27705826477528
H           -0.28046706189665        3.92034001930544        0.64476029464026
H            2.15531495356611        4.16952514409082        0.32538321318164
C            3.74854216979262        2.33831311010377       -0.89378453369925
C            2.35101509911282        0.12592747391534       -1.83654815302561
N           -2.34846147675474        0.70293693943359        0.35376650659878
N            0.31731608727709        1.03103722357681       -0.92980088093742
C           -4.20213405313320       -0.68857103618235        0.99488046091210
C           -5.94359992922945        1.42785120192597        0.46909244019789
C           -6.43423449439774        0.21227031323697        0.88548125674199
C           -5.55940652793967       -0.83975978731018        1.15779651260151
H           -3.52710025904351       -1.50030788179585        1.21005409403154
H           -6.61033052294907        2.25396808419849        0.27154860806984
H           -7.49708304766079        0.07295957187373        1.01137642733271
H           -5.94860979918812       -1.78586183185848        1.49983322361825
C            4.41605352948031        1.33008787010101       -1.55720899794444
C            3.71208946897358        0.23251267408091       -2.03829751048703
H            1.80032257730440       -0.72105275330660       -2.21032063302683
H            4.28425218132020        3.19988341395533       -0.52483543041778
H            5.48210190615065        1.39743966713005       -1.70966876356949
H            4.23099228445177       -0.54968401160268       -2.57078719709658
