57
 energy: -99.562445198466 gnorm: 0.000946017677 xtb: 6.5.1 (b24c23e)
Si           0.23182066796481       -0.31815885999323       -0.16253593497539
O            1.37910561813828       -1.45076492838130       -0.21775578131881
C            2.39000180027174       -1.87487748482104        0.66326524610933
C            3.68843640292407       -2.00991325675052       -0.08860208989966
H            2.50238016278246       -1.14920423021256        1.47598416833048
C            3.69004417794058       -2.44892317466252       -1.40586415172248
C            4.89355170535732       -1.71478613155784        0.53429474158381
C            4.88324423667253       -2.58808117938929       -2.09182808611072
H            2.74854177450060       -2.66034980984898       -1.88942103934953
C            6.08648225063528       -1.86049192245958       -0.15151585144397
H            4.89393896590033       -1.36544042364096        1.55701143753449
C            6.08349292406748       -2.29742656392793       -1.46544818950221
H            4.87621414711993       -2.92329275279864       -3.11857891804056
H            7.02025487221819       -1.62758473100519        0.33942646026984
H            7.01513789482197       -2.40605600053945       -2.00140594823231
C            1.96776782774612       -3.23588603237361        1.25380280523242
C            0.75903081048218       -3.09219827440753        2.03488061195543
H            2.77656142625735       -3.61985765580458        1.88054943615986
H            1.79064644938334       -3.93184652404480        0.42950400560601
C           -0.24855290869432       -2.92023396410032        2.65710789648626
H           -1.12607291974687       -2.78879914414030        3.21655290338026
Cl           1.07537741103890        0.73052172333061        1.58652781102656
Cl          -0.59226293176607       -1.27412598284845       -1.90836073751226
O            0.06037481621140        1.14994820531486       -1.04021810738651
O           -1.23906862077502       -0.30305195027545        0.71092126210496
C           -1.72168395714301        2.34128983023000       -0.10341141778807
C           -2.64969370535453        1.26138079534991       -0.30687319085784
C           -3.23895554787181       -1.06777818098951       -0.20084883876380
C            0.49749361639334        3.26455493322597       -0.16686839651796
C            0.03691215936001        4.48001289892991        0.39170892347692
C           -2.19529339434759        3.57236604876159        0.39935991356756
C           -1.35275684681010        4.60960656600646        0.65950595892260
C           -3.92320730390380        1.53669307849583       -0.84953915413169
C           -4.82064170566358        0.54478422955068       -1.10298152059591
C           -4.49660633246468       -0.80352495160650       -0.79243039289846
H           -3.24353642554064        3.64560887694248        0.64117299992455
H           -1.72160394192323        5.52860207405545        1.08698486400665
H           -4.14185790629966        2.55565335872764       -1.12601697534459
H           -5.77341357402848        0.76452047650334       -1.55827695412194
C           -5.36298468220903       -1.87512299366826       -1.03723995761802
C           -2.88807525248381       -2.37396707985698        0.15101609434831
N           -0.39732117509634        2.26234113626270       -0.40949486760366
N           -2.38979027378320       -0.02757222051793        0.04383167446219
C            1.85011420181069        3.10634722220277       -0.48107787687255
C            0.96370676669970        5.49717686884269        0.64730819568742
C            2.29647559370916        5.32175736089382        0.35134258644343
C            2.73510119019060        4.12714932191034       -0.21696153978817
H            2.18594241615450        2.17988071252003       -0.91599545129191
H            0.61257290920695        6.42128667308580        1.08122614430744
H            3.00423979517789        6.11023705673436        0.55622293718380
H            3.78023206740816        3.99674170649830       -0.45088778279957
C           -5.00110305298189       -3.15949231528075       -0.69952509416559
C           -3.76527374958130       -3.40428478385720       -0.10310347217518
H           -1.92941982281861       -2.56128809215045        0.60715588772183
H           -6.31960948173236       -1.67452055418759       -1.49569359498716
H           -5.67490537123368       -3.97967193811371       -0.89446536309878
H           -3.48838017429204       -4.41288806615232        0.16179671108019
