57
 energy: -99.571692843338 gnorm: 0.000925188484 xtb: 6.5.1 (b24c23e)
Si           0.41648430869576       -1.14593205239782        0.62763298831743
O           -1.19319879081088       -0.95709868113896        0.48175970163019
C           -2.22708674762268       -1.87007882559052        0.19763170134073
C           -2.96466003375091       -1.41583498710488       -1.03602213793345
H           -1.79553112349581       -2.86256812738215        0.02750595825526
C           -3.37580163245355       -0.09402494692988       -1.15010975293480
C           -3.23721700093499       -2.30285124006739       -2.06795574248192
C           -4.04575290669873        0.33653202391493       -2.28058413540117
H           -3.16055163971203        0.59838675506924       -0.35027029197604
C           -3.91694803490343       -1.87394985084636       -3.19478931595796
H           -2.90851277187426       -3.32868874170095       -1.98855792621321
C           -4.32102183889653       -0.55412123067135       -3.30439245253767
H           -4.35573407341128        1.36891343447834       -2.36004829955803
H           -4.12568880751035       -2.57085059142707       -3.99348672974972
H           -4.84608758451092       -0.21952472629069       -4.18726484770453
C           -3.18220098398080       -1.94073246038098        1.40555015030028
C           -2.44886169833410       -2.30127245505983        2.59988250866620
H           -3.95386953607875       -2.68613251811996        1.19744619042684
H           -3.65764077173083       -0.96611404438535        1.54664394549726
C           -1.78051003881620       -2.57088784317182        3.55500224907417
H           -1.20467412808324       -2.82238151397977        4.39466745278851
Cl           1.41066382554851       -1.71319808557078        2.33039653267214
Cl           0.56873995362902       -3.08498679169457       -0.29761044594803
O            1.23783873865972       -0.55580443189751       -0.76041104403423
O            0.52218643439856        0.52234931208968        1.34890331960747
C            1.74835364245650        1.75083642351125       -0.75643422346562
C            0.44111007468189        2.13472772528986       -0.32507439084592
C           -1.37020197269356        1.86629933531001        1.21754291436008
C            3.46305726354745        0.07436850333635       -0.93903188835658
C            4.42934668658837        1.06676561981812       -1.23052518302258
C            2.69120340940886        2.73326380115727       -1.12942562009732
C            3.99351793053538        2.41535381053328       -1.36095517378131
C           -0.24749402500088        3.21073941488769       -0.92908052978124
C           -1.48497015370084        3.58250251042348       -0.50781752635641
C           -2.08765168836533        2.91655247694832        0.59527724570101
H            2.36404023081133        3.76022769567680       -1.15539386059259
H            4.71438194174608        3.17699595973079       -1.61261471410200
H            0.21288008454656        3.69149726973924       -1.77718804863475
H           -2.02510792087339        4.37586898591608       -1.00016925056161
C           -3.35271184436617        3.25291155017255        1.09146059230595
C           -1.90801515594647        1.21542197034918        2.33381587957101
N            2.15533536501025        0.44895732276352       -0.77069568874379
N           -0.14731108557741        1.51052319968351        0.72901914759491
C            3.84313154475037       -1.26681976791045       -0.84701063185900
C            5.76373692309168        0.67987402836565       -1.39246399724669
C            6.13005727167355       -0.64339945636307       -1.27898379841619
C            5.16721203243755       -1.61308568611944       -1.01106286193621
H            3.10121003905730       -2.02248009710230       -0.65023910855812
H            6.50056039585129        1.43828370436864       -1.61079029892398
H            7.16269722721554       -0.93050993847051       -1.40423196771566
H            5.45493961627514       -2.64946361311574       -0.92983153790692
C           -3.88210557518965        2.58742929603675        2.17491481179401
C           -3.15242972028196        1.57583552499530        2.79887952710981
H           -1.34447810904780        0.42716155609780        2.80430502931205
H           -3.90485597385045        4.04554397882652        0.60904367037875
H           -4.85999550054720        2.85213209873403        2.54687067412410
H           -3.56508407156686        1.06506741666452        3.65554823251250
