57
 energy: -99.568920534041 gnorm: 0.000282115712 xtb: 6.5.1 (b24c23e)
Si          -0.15240834619657       -0.52689121445000        1.30377869452336
O           -0.48413347712676       -1.87004376193063        0.45670765429496
C           -0.12058695809875       -2.25664588356836       -0.84699389051826
C            1.35293765803321       -2.55050270977445       -0.94933654122294
H           -0.37621949691691       -1.44972338119869       -1.54485261098240
C            2.03930952492634       -3.08516163495763        0.13254514015080
C            2.03845605626339       -2.28876289274251       -2.12885903149277
C            3.39672764100750       -3.33953744060563        0.04113829718410
H            1.50681305361289       -3.28171060824978        1.05057500685449
C            3.39383564475991       -2.55059899674772       -2.22202695077756
H            1.50767192247142       -1.86892398548425       -2.97181538065612
C            4.07604161098657       -3.07336427643641       -1.13576743058790
H            3.92365967322067       -3.74510485008952        0.89177486408914
H            3.91986041343740       -2.33880975266938       -3.14154452109199
H            5.13541210832290       -3.27176043341794       -1.20758046824697
C           -0.95032561203171       -3.50745907475014       -1.19572809296611
C           -2.33948477231240       -3.15297751874852       -1.38796830794829
H           -0.55317484989042       -3.96210609645090       -2.10716077250735
H           -0.86300556996432       -4.21832820203166       -0.37131948135241
C           -3.46995860424834       -2.79632576676522       -1.55073456550458
H           -4.47090820231934       -2.51601410463748       -1.68876081291794
Cl           1.57388394893510       -0.02945725948334        2.34701747144354
Cl          -1.10342888524212       -1.36621005337635        2.99373848844330
O            0.56253658427283        0.23241208343321       -0.25596606012089
O           -1.26985411633926        0.76827078316991        1.34554600207770
C            0.16737147289431        2.52063447285880       -0.34989568674231
C           -1.23840748896871        2.28348423140976       -0.46322471384260
C           -3.16123650843064        0.91010494616960        0.00047294059668
C            2.39810656652646        1.65942967879626       -0.20008129482589
C            2.92999446935171        2.97056046888307       -0.21297157353356
C            0.69137507073641        3.83143534289003       -0.41056154755335
C            2.02697618626109        4.06357670925733       -0.31528365502276
C           -2.01663074850870        3.04210376064426       -1.36355094722271
C           -3.31570136764470        2.72728042786401       -1.61853211527304
C           -3.92028537759375        1.61748197717215       -0.96307264500149
H           -0.00744473606973        4.65010206889656       -0.47181993420234
H            2.41733857948493        5.06911394876766       -0.31591411753259
H           -1.53025783009142        3.84063938573110       -1.90051035429135
H           -3.89315819834040        3.29224929720526       -2.33307295082630
C           -5.23446261607280        1.21160227552863       -1.21503956151324
C           -3.73628217065819       -0.15135658777467        0.70264102932136
N            1.04326035811411        1.48526283873745       -0.24406546269365
N           -1.87113441841764        1.30266255731367        0.24426831194324
C            3.25955931187060        0.55717603412502       -0.17312685400680
C            4.31855443235070        3.13427544592845       -0.14178529013386
C            5.15262628790634        2.04138241385541       -0.08383918982977
C            4.61894270235035        0.75337473317910       -0.11342707632642
H            2.84570130514362       -0.43555970231545       -0.19765684379528
H            4.72170694569835        4.13593023724872       -0.13744506714443
H            6.22130759020289        2.17928314378312       -0.02457602793429
H            5.27424017970616       -0.10315970848854       -0.08774947688312
C           -5.78681000210662        0.15260806092743       -0.52716424002358
C           -5.03724810477576       -0.52084343192051        0.43347949838881
H           -3.16566501049021       -0.67477087290513        1.45111249047601
H           -5.81014269801711        1.74868977737486       -1.95405967687138
H           -6.80377286987214       -0.14920508386301       -0.72798170441501
H           -5.47236526210301       -1.34400981531782        0.97846303654855
