57
 energy: -99.568440592438 gnorm: 0.000329518371 xtb: 6.5.1 (b24c23e)
Si           0.23564782797519       -0.51019109655177        1.20321974976812
O            0.73038751736147       -1.73300890706643        0.26445049540781
C            1.42786731773233       -1.73491637062730       -0.96048371610279
C            2.90453360133235       -1.56053562160965       -0.71521346125534
H            1.05873289402844       -0.91726002384464       -1.58830227146917
C            3.49147051425326       -2.13068638794549        0.40658420617276
C            3.68522088972753       -0.81689200710534       -1.59010553483205
C            4.84151392641099       -1.95670280372044        0.65137432757445
H            2.87667652452761       -2.69136800117061        1.09407914765527
C            5.03688956798624       -0.64680897379570       -1.34580509141188
H            3.23059779449609       -0.36592344184874       -2.46178512039312
C            5.61683313235443       -1.21573732019632       -0.22458138002823
H            5.28802674456421       -2.39827980627024        1.52969920267469
H            5.63676443410651       -0.06347816199405       -2.02947447719167
H            6.67060929389415       -1.07770057434355       -0.03190977992142
C            1.12456535852508       -3.07465496926862       -1.65584756350333
C           -0.26377851593880       -3.11392568661277       -2.06165377970960
H            1.77356744733940       -3.18470850442788       -2.52839847094645
H            1.32552507985653       -3.88555795765194       -0.95251340993514
C           -1.41935077754974       -3.07204407030729       -2.36980815820474
H           -2.43005474346526       -3.07447161753246       -2.65016206675712
Cl           1.42742497899279        0.83499384557223        2.24217492346278
Cl           0.02565748141730       -1.82824447355708        2.84549651208848
O            0.26171458941257        0.61706196911694       -0.29847637354403
O           -1.43004727308441       -0.16027163476502        1.34672095455163
C           -1.39694828638897        2.24082770332153       -0.16686153889600
C           -2.40396421965369        1.23386656024749       -0.29140917970560
C           -3.10144824848022       -1.05103413935667        0.00214278940791
C            0.92500615119686        2.83651130547957       -0.16520969936884
C            0.59739778308129        4.20919314106923       -0.06563959912890
C           -1.73433891450280        3.61150681441242       -0.10127994188881
C           -0.77660335701330        4.57217316056888       -0.02033333120450
C           -3.54002310234631        1.46123164226328       -1.09789101790230
C           -4.41340542212386        0.45994407451148       -1.39104063381613
C           -4.19275654969870       -0.84917690982470       -0.87679675429810
H           -2.77997873467297        3.87041824156704       -0.05731734150560
H           -1.04135448251217        5.61353658007051        0.07425867178422
H           -3.65902804053984        2.43867383637980       -1.53712575532406
H           -5.26085896730357        0.63429585762333       -2.03509220191833
C           -5.01574138658251       -1.93641707467236       -1.18857988342363
C           -2.88055020554048       -2.30957135448026        0.56654641400595
N           -0.07778511563481        1.90856455932515       -0.18109318944531
N           -2.28879929535940        0.01026041664976        0.30135007976918
C            2.26342121149678        2.44348919117835       -0.28278845654071
C            1.63508648638589        5.14815732718402       -0.03630940571776
C            2.94817747294514        4.74628239413245       -0.12629837933433
C            3.25758004829052        3.39321008424185       -0.26118946766119
H            2.50138441326085        1.39773140020149       -0.38629333331919
H            1.38398839548749        6.19452388349633        0.05251943015839
H            3.74056882058268        5.47842060724791       -0.10147252222761
H            4.28710883574256        3.08265883349179       -0.34860744163394
C           -4.77654779719821       -3.17858237333378       -0.64083233257312
C           -3.71264325738003       -3.35890649851125        0.23914681195611
H           -2.06370440405825       -2.45455819566187        1.25298621457038
H           -5.84474524248608       -1.78234922053937       -1.86352417002321
H           -5.41748126856128       -4.01085481969012       -0.88934143742341
H           -3.53125892669214       -4.33001643106029        0.67190073847819
