57
 energy: -99.494412629512 gnorm: 0.000524069431 xtb: 6.5.1 (b24c23e)
Si           0.77364607994067       -1.01026939229146        1.63171274400039
O           -0.94705686185182        0.77495586525728       -2.60027613531116
C           -1.33032008860272       -0.19331896594741       -1.98451303037092
C           -2.73402223667691       -0.52602713631820       -1.72731609235653
H           -0.61300847428153       -0.90988752627109       -1.54622938596646
C           -3.75257813132289        0.23749387345346       -2.29920855616883
C           -3.05712657423609       -1.60117298483099       -0.90017484264004
C           -5.07398083255554       -0.07295496604001       -2.04998180622402
H           -3.47998191900646        1.06353369244624       -2.93894607863277
C           -4.38178186169484       -1.90152709046348       -0.64832477824112
H           -2.26396270661010       -2.18610669452049       -0.45795240338395
C           -5.38866052002439       -1.14070987292195       -1.22303835775133
H           -5.86193206450990        0.51451301855549       -2.49720567877311
H           -4.63319977998648       -2.73098000352243       -0.00507220666123
H           -6.42297761636205       -1.38192404979888       -1.02707230977523
C            0.66329990063164       -3.68548947708360       -1.31136675540536
C            0.31636841552068       -3.15678292047519       -0.18152214499614
H            0.15416285812936       -3.44835647687537       -2.23172997222354
H            1.47134125442261       -4.39555107564909       -1.37940653844743
C           -0.01665600332494       -2.59726943942155        0.93951947821386
H           -0.73573053431546       -3.08794378055128        1.58040924978198
Cl          -0.06082617523914       -1.33681931268737        3.59552378741867
Cl           2.73378739889778       -0.90063035779070        2.30979526776107
O            1.25504207361933       -0.64683880515958       -0.09737098948780
O            0.07361480724851        0.54209804495628        1.73196087272435
C            1.75201954794456        1.61879832285162       -0.34729515736441
C            0.38465631086840        1.97396957121972       -0.13936665450745
C           -1.79848543139456        1.45435579271685        0.73214381156067
C            3.43379013189223       -0.06553714857143       -0.62147862250988
C            4.41683615816151        0.91644143426697       -0.88272338213553
C            2.72354547204514        2.60761104303850       -0.62987828427114
C            4.02057275129072        2.28142990732928       -0.86750435032850
C           -0.18922403669891        3.02509201465403       -0.88737628250055
C           -1.52599481090855        3.27367211943384       -0.86072660529130
C           -2.38471024960925        2.45839904161036       -0.07237121647333
H            2.41637876700734        3.64016343204369       -0.59392366233099
H            4.76199173484779        3.04517560868135       -1.04254268650269
H            0.45298651654060        3.58016119214749       -1.55052421335674
H           -1.95531064463782        4.05679965154976       -1.46468242220400
C           -3.77470088557036        2.60859152794259       -0.05278756588946
C           -2.60086774068984        0.65275758544841        1.54748109958737
N            2.15222021355356        0.32029228724584       -0.35078744679659
N           -0.43670697229930        1.29344199661783        0.71384278534823
C            3.77184622145009       -1.42306406731265       -0.66296193172509
C            5.72775929985376        0.50351035356390       -1.14802670918339
C            6.05093733981088       -0.83368199853333       -1.16920267890813
C            5.06781607740814       -1.79450863249768       -0.93321653013798
H            3.00516032906137       -2.15703918474056       -0.47831283850757
H            6.47934161428762        1.25507026197886       -1.33788879793850
H            7.06475061728081       -1.14237923142742       -1.37272466226565
H            5.32642642738223       -2.84179153768579       -0.96043390722922
C           -4.55878857967368        1.79826802849724        0.73903058069283
C           -3.96868260393145        0.82584635953519        1.54000642410625
H           -2.14482659089781       -0.08684389146164        2.18475983514861
H           -4.22152962905267        3.37457749068135       -0.66839983234495
H           -5.63066969112570        1.92273576434805        0.74582230532588
H           -4.58355607215046        0.19978373886782        2.16735526193665
