57
 energy: -99.569463115005 gnorm: 0.000952140352 xtb: 6.5.1 (b24c23e)
Si           0.40184851798649       -0.64756375626257       -0.68198662655653
O            1.63875607372201        0.21937784384976       -0.07515763370708
C            2.70596953934925       -0.06333319869767        0.80334125417517
C            3.55538813067619       -1.20263547774463        0.28471755606040
H            3.31274538593047        0.85846435257484        0.77611153058850
C            4.02362995006099       -2.23782671644137        1.08085466331669
C            3.87764704591311       -1.19779307759060       -1.06799731288887
C            4.78658859467085       -3.25229420005780        0.52784261135447
H            3.78793516224533       -2.27734190436904        2.13220241976069
C            4.63049336132093       -2.21530006594180       -1.62121311009037
H            3.51417173530526       -0.39387192384014       -1.69141322046871
C            5.08821795493028       -3.24872984760788       -0.82185340142511
H            5.13723175182651       -4.05692614579149        1.15787554287149
H            4.85495275721024       -2.20235308338061       -2.67736363367031
H            5.67330606802303       -4.04909233528895       -1.25020581589185
C            2.17666826857036       -0.25054465700701        2.23276544466759
C            1.34010021752814        0.87084793198810        2.60109231354018
H            3.01678485021695       -0.31670675265567        2.92785241548991
H            1.58524344227476       -1.16773596640893        2.27694384260795
C            0.64565367888650        1.81152350789577        2.85522230197287
H            0.03813010848570        2.62390066239289        3.12126940108340
Cl           0.41891570081276       -1.42289725463702       -2.58604999516012
Cl           0.81528663709228       -2.55077425709150        0.25084413571377
O           -0.99854426958666       -0.60219544398830        0.30827023674198
O           -0.18478134386892        0.87035961956259       -1.50612677207100
C           -2.45753580230888        1.22622495599032       -0.03841692761647
C           -1.40053960612879        2.18733683908131       -0.02626896856839
C            0.76422620233700        2.86893967897437       -0.78412747091247
C           -3.19339713655562       -1.05001118849537       -0.28978046088936
C           -4.53643492340612       -0.62249227161549       -0.42031663759038
C           -3.80376458478938        1.64883417286745       -0.08679924319134
C           -4.82032156270852        0.76455863011679       -0.27430912336700
C           -1.52044884723457        3.40101897183520        0.68751434324613
C           -0.50535765250613        4.30434504125973        0.71733277589719
C            0.68541960453209        4.05638041981456       -0.01950101028635
H           -4.00084496609077        2.70792292202286       -0.04265748801628
H           -5.84273488677656        1.10057323985420       -0.34404304633828
H           -2.41772447646396        3.56000499006792        1.26431593353725
H           -0.58223903138069        5.20952200065092        1.29983761345740
C            1.77079462683051        4.93992380482548       -0.03423117651664
C            1.88677199232865        2.62637526023909       -1.58359750730735
N           -2.21712860170805       -0.11686354701747       -0.05478798131510
N           -0.27276656303252        1.98330372409584       -0.75461823117285
C           -2.88100617837219       -2.40891832944803       -0.37899595339458
C           -5.52665321818911       -1.57816309695639       -0.67011609056691
C           -5.20353891476093       -2.91329724387495       -0.77685972570217
C           -3.88189498353891       -3.32443696331740       -0.62523060157357
H           -1.86196487980112       -2.73410023816124       -0.25100018039180
H           -6.54976229793909       -1.24914705609801       -0.77432883658947
H           -5.97559984229038       -3.64193657934609       -0.97073057525404
H           -3.63195174152137       -4.37110343194929       -0.69984234905874
C            2.88616840087773        4.66907667678768       -0.79398824436121
C            2.93513341752055        3.51672548509124       -1.57804940301757
H            1.90823688632553        1.73722960377049       -2.19054546716905
H            1.71494162009499        5.84058285303149        0.55878141984772
H            3.71994529857281        5.35433703643637       -0.79448925664638
H            3.80318532861840        3.32221978581372       -2.18929427733098
