63
 energy: -105.905889048515 gnorm: 0.000536639319 xtb: 6.5.1 (b24c23e)
Si          -0.24006037047385        1.15448028773589        0.77836438686288
O            0.84426523808786        1.53708998608305       -0.35578393224973
C            2.03399161420935        2.28273808702968       -0.33252879803130
C            3.18080587683237        1.40661254322562       -0.77038830853602
H            2.21524928225136        2.65298030715062        0.68392849580462
C            2.96110169024032        0.35806148637113       -1.65350517452378
C            4.46668209707736        1.64645371346564       -0.30577614661333
C            4.01138350843256       -0.44260076274220       -2.06319134243965
H            1.95731435232572        0.17280186793532       -2.00518632255001
C            5.51790505292800        0.84978493039648       -0.72247152348051
H            4.63953875942131        2.45586991662688        0.38862329115446
C            5.29254309828408       -0.19652656424322       -1.60094413817909
H            3.83027610263342       -1.25960404989121       -2.74666824226372
H            6.51608479534599        1.04339012242169       -0.35756214417929
H            6.11387514072721       -0.81919124480366       -1.92373896289074
C            1.87485378447316        3.48315102602629       -1.28680891957021
C            0.78652811219123        4.32751896203134       -0.84266962066455
H            2.80858602780028        4.05023094908249       -1.30899412459322
H            1.65954552179225        3.10694479333846       -2.29036039067412
C           -0.13568376452595        4.97361438927823       -0.43825913450223
H           -0.93625717147759        5.55556838671934       -0.09106374128352
Cl           0.85561098676447        1.90659914841310        2.50265483498506
Cl          -1.94219650277680        2.17085340183724        1.37299809167046
O           -1.12327765847325        0.42630513683940       -0.65418777320155
O           -0.12455118897509       -0.41474994814068        1.47803508032421
C           -2.06478179234766       -1.59413727590472       -0.00578847554201
C           -0.71963706691272       -2.12797734781936       -0.00667611233615
C            1.57033061203751       -1.79625809830992        0.67057005773614
C           -3.44656154769202        0.26940557179692       -0.60934588590282
C           -4.60695478452531       -0.47078223163154       -0.28316130975599
C           -3.20272933768300       -2.34117268721040        0.36746998561122
C           -4.44459765937619       -1.77162247389388        0.25265017768792
C           -0.34718009026618       -3.25094440681634       -0.77429705878595
C            0.97338652937739       -3.62619123546550       -0.81588215585844
C            1.96679393940685       -2.91824911908587       -0.09518439209095
H           -5.31820671531867       -2.31261613794908        0.58290851491856
H            1.27625228105708       -4.45403418791331       -1.43869807939688
N           -2.22642702851323       -0.30390681737898       -0.40949633025665
N            0.24551695025381       -1.46496259399604        0.69119109380406
C           -3.55793304278662        1.55051759290058       -1.16062823429603
H           -2.66075517887181        2.08572771351871       -1.42291872470429
C           -5.85996022300822        0.12368864502564       -0.48628576965976
H           -6.74670690817965       -0.43397996777493       -0.22481301375528
C           -4.80403629892194        2.09735918270476       -1.35882194402541
C           -5.95622306135623        1.39070928258249       -1.01270782981393
C            2.51601803401181       -1.07240335944151        1.39949603794350
H            2.20523833304499       -0.23105608343376        1.99606703550148
C            3.32261854963809       -3.26673839159238       -0.12133815878168
H            3.62732969921497       -4.11848611372085       -0.71081938946524
C            3.84137748715907       -1.44941307748836        1.35758781624141
C            4.24786560422853       -2.54039175349907        0.59499118735092
H           -4.89001366600703        3.08403184389747       -1.78645761848336
H           -6.92580923700509        1.83969502618726       -1.16474304904220
H            4.56761655009421       -0.88795750509172        1.92354228595763
H            5.28993537676637       -2.81938640825269        0.56956137143113
C           -3.06406659353872       -3.69669791497222        0.99449226388662
H           -3.51717641721511       -4.46054834244928        0.36498640737438
H           -2.02439001669709       -3.95183296681610        1.17285816107942
H           -3.58884702847690       -3.70372552005198        1.94830804748994
C           -1.33903747104674       -3.97641620051939       -1.63484855361773
H           -0.89015708901716       -4.19107949827103       -2.60233905941106
H           -1.61383807436755       -4.92755842953867       -1.18177992398157
H           -2.24013900228322       -3.39189758450789       -1.79178081542442
