63
 energy: -105.905879794820 gnorm: 0.000294394175 xtb: 6.5.1 (b24c23e)
Si           0.32804065742822       -1.10650796865631        0.77009239364901
O           -0.75326732368670       -1.63565185290827       -0.30714280061697
C           -1.86511401799535       -2.48797396622370       -0.20893163153282
C           -3.10166494932697       -1.74491669608985       -0.64825335877406
H           -1.98115774956822       -2.82149692763688        0.82945777615489
C           -3.01001613251729       -0.74002641418169       -1.60198872014978
C           -4.34164415711385       -2.06142441759992       -0.11082492736401
C           -4.14141970163601       -0.05686771040377       -2.00871850448972
H           -2.04139302518713       -0.49370595628227       -2.01001193034440
C           -5.47404489785709       -1.38263667941476       -0.52420538649918
H           -4.41490369967352       -2.83670595490375        0.63801603833956
C           -5.37621088272866       -0.37841702718583       -1.47242218871112
H           -4.05991913785450        0.72784661930530       -2.74694146148082
H           -6.43559533842399       -1.63457472809802       -0.10123603023770
H           -6.26061353315581        0.15333526412414       -1.79145436531755
C           -1.61610762839118       -3.71480619331986       -1.10902369423782
C           -0.43650788370821       -4.42253337775127       -0.65923115493081
H           -2.48887938650603       -4.37101588309864       -1.07230100788673
H           -1.46751222074240       -3.37163120550027       -2.13626861406422
C            0.55783552224877       -4.94841219763117       -0.25182298172795
H            1.42412529232878       -5.42312317247216        0.10032529340474
Cl          -0.67201547446011       -1.82259462925490        2.56587447350447
Cl           2.11324586187639       -1.95740881442186        1.38179226062838
O            1.11888472428565       -0.41020960055030       -0.72986737640691
O            0.12143804264373        0.49141698959161        1.37524492032731
C            1.94699586976842        1.70070311961443       -0.22890781914712
C            0.57107738341514        2.14902913943503       -0.22058799307742
C           -1.67916231995512        1.69948443858324        0.52176844644206
C            3.42612521075017       -0.10875963869354       -0.76584997842402
C            4.54684027230876        0.71840594597533       -0.52093013195428
C            3.04680099441922        2.53526184979605        0.06610618380421
C            4.31805301331153        2.03665599256980       -0.05675018566350
C            0.10773457367018        3.20098574597456       -1.03821609278063
C           -1.23644563022185        3.48093627987510       -1.07282789026451
C           -2.16648742906174        2.74471661343021       -0.29807870805401
H            5.16503835452048        2.64852869815902        0.21387542593022
H           -1.60660759647355        4.25111268630088       -1.73221715936058
N            2.17878682185169        0.40111646968344       -0.56340725529422
N           -0.33380264664038        1.46448297975432        0.53565838179838
C            3.60119362202262       -1.41344594888277       -1.24042646154740
H            2.73203407023078       -2.01714749167347       -1.44118388812017
C            5.82815937746203        0.18846879881959       -0.72637438722860
H            6.68557363154358        0.81362714591685       -0.52728703584691
C            4.87273036694005       -1.89658936775036       -1.44169995706129
C            5.98806130322744       -1.10154111682669       -1.17586112239449
C           -2.55987306819481        0.95324710375275        1.30747841422393
H           -2.18138513548813        0.17250799170529        1.94574056210071
C           -3.54449181818896        2.99207539551549       -0.32096810698918
H           -3.91817604015897        3.78439745373074       -0.95220139706324
C           -3.90965462530903        1.23035437253879        1.26700645252748
C           -4.40489821796092        2.24271707974857        0.45029733985209
H            5.00771755960729       -2.90211089019944       -1.80854688524925
H            6.97898739293595       -1.50071658765196       -1.32924685730012
H           -4.58535437318080        0.65098989396716        1.87582958352921
H           -5.46493852159150        2.44302647315070        0.42626016972684
C            2.84221203082049        3.91335999117111        0.62184813381818
H            3.21596146208528        4.66736955754281       -0.06872706707454
H            1.79557527723869        4.10936507052645        0.83171671017053
H            3.40401347809782        4.01085176957891        1.54919218908131
C            1.03018956211914        3.94737372660366       -1.95608578006770
H            0.54846728984933        4.08270904987642       -2.92211286624538
H            1.24745141093209        4.93650254353845       -1.55597673302652
H            1.96605513302449        3.41813016540858       -2.10539325500763
