63
 energy: -105.904603000606 gnorm: 0.000968235361 xtb: 6.5.1 (b24c23e)
Si           0.53175112263207       -0.80983990351049       -0.33846590278714
O            1.65590862054275        0.31059599093941        0.01193698033430
C            2.84866305025774        0.32185681186630        0.76490319759451
C            3.79805001198185       -0.76213252295819        0.30434206148753
H            3.29803068069557        1.29944152504601        0.51853567322378
C            4.51582313955706       -1.57514762932197        1.16952919004441
C            3.95239873246246       -0.94030363192499       -1.06617070535375
C            5.35847831425364       -2.55346528275114        0.66980033513983
H            4.41475147322200       -1.47098166936346        2.23789059989022
C            4.78525299134402       -1.92328004119876       -1.56441182266841
H            3.39389251961243       -0.31126486082436       -1.74336297037280
C            5.49335884260084       -2.73463179684157       -0.69469118149230
H            5.90381110230200       -3.18522172015908        1.35569988582752
H            4.87741885614749       -2.05727687025555       -2.63202358772896
H            6.14231103009877       -3.50747818241146       -1.07910741694162
C            2.52855935310944        0.30530633047860        2.26645481631943
C            1.60659121472737        1.37133224809315        2.59140471064299
H            3.45026727305980        0.44481716855598        2.83581268409669
H            2.07543184313888       -0.65447254293395        2.52399636435229
C            0.84407189092693        2.26262308535022        2.82644077227417
H            0.17493363398385        3.03373079385797        3.06478311869249
Cl           0.49006439514387       -1.92946710545318       -2.06433060809303
Cl           1.32134128668849       -2.44232025442648        0.85188542252327
O           -0.80255588322880       -0.76895012173524        0.74868275121741
O           -0.31579220179594        0.44748114379955       -1.36264892285166
C           -2.59714732212967        0.55176450128735       -0.00629379824117
C           -1.71132051032621        1.69484967867249        0.00687678226185
C            0.30312345277143        2.64213031808907       -0.88153663259818
C           -2.79667644748231       -1.84053222204352        0.22228999458969
C           -4.15677026522664       -1.77309486262229       -0.16204932647345
C           -3.94677887506887        0.63793863725177       -0.41025479207428
C           -4.70298161714373       -0.50556911641708       -0.48013617778532
C           -1.96252035797478        2.87273071201540        0.74400601293810
C           -1.07659942845023        3.91580100981689        0.65885690020622
C            0.06801930310131        3.84225979911010       -0.17191206943413
H           -5.72336651450642       -0.45357190399721       -0.82809285214303
H           -1.23265694239963        4.80561328645483        1.25080836707703
N           -2.08685014380341       -0.67497120519363        0.30473007159023
N           -0.58052646217220        1.61643324022773       -0.74461583935147
C           -2.21222494985836       -3.07177818014350        0.52726037284127
H           -1.18037488820297       -3.11617106398713        0.83322886403282
C           -4.89245778954094       -2.96225508679195       -0.24124819181202
H           -5.92879574211456       -2.91136216531986       -0.53960713655691
C           -2.96682118672513       -4.22236209881486        0.44055487513084
C           -4.30414240162429       -4.17162908144940        0.05504563438685
C            1.41199209714125        2.52979643117930       -1.72676489035906
H            1.55098297946697        1.61681059596856       -2.28066581955042
C            0.99154613139438        4.88839462553865       -0.29935092719000
H            0.82220352960620        5.80125953935893        0.25196041239691
C            2.29642073352353        3.57801650241413       -1.83292251177327
C            2.09422111165614        4.75479809514463       -1.11163675495099
H           -2.50977354705652       -5.17070938162336        0.67527356887551
H           -4.87999756687616       -5.08211769614453       -0.00996774539567
H            3.15427564180513        3.48904524814166       -2.48200007123343
H            2.80272072857197        5.56439175903071       -1.19825479840278
C           -4.54519061313447        1.93163317320086       -0.87916547425429
H           -5.23704162362123        2.32553419303790       -0.13629344217146
H           -3.78415597162883        2.67844310266848       -1.08231597535403
H           -5.11017165094259        1.75511126495817       -1.79234690622145
C           -3.10930561749773        2.95514273764126        1.70772926810880
H           -2.74354650449530        3.28835543523420        2.67739018035733
H           -3.84577376745624        3.68237997444549        1.36943474937680
H           -3.59352129503947        1.99255524174909        1.83735563377614
