63
 energy: -105.819026787978 gnorm: 0.000816329931 xtb: 6.5.1 (b24c23e)
Si          -0.57228142722367       -1.61814227661863       -0.37041380413043
O            1.07081885036809       -0.95867211304923        0.59028194208760
C            2.26382124042286       -1.24250713392807        0.37216469244671
C            3.34792532914145       -0.57056012275304        1.03124925756482
H            2.51329749013483       -2.05496702072946       -0.31469019009863
C            3.09513260996527        0.41778276258931        1.99578031363419
C            4.67468991027342       -0.86571839311122        0.68842119155076
C            4.13918135939020        1.09125282302907        2.58843979429782
H            2.06960208103713        0.62560834292907        2.26119536749934
C            5.71240408321580       -0.18395113234843        1.28787600518288
H            4.87054945181880       -1.63098717126980       -0.04739226140010
C            5.44994033430177        0.79743612119690        2.23344855059777
H            3.94132349268479        1.84869775921266        3.33257205940617
H            6.73354615212912       -0.41359630951563        1.02174329462323
H            6.26653308999942        1.32875113379511        2.69907703690765
C            1.76655329216482       -4.79383946691574       -0.92861075436658
C            1.08104254734518       -3.75940321755491       -1.30487529719751
H            2.82452531078097       -4.74515648272169       -0.72355788846039
H            1.29816222260268       -5.75652043040611       -0.80916418770359
C            0.37415620469082       -2.72468102529699       -1.61945681747880
H            0.22788221499439       -2.47601091678035       -2.66175175727172
Cl          -2.48167048337768       -1.89132662564546       -1.36435605766492
Cl          -0.73296231843184       -3.06306368506047        1.18095799405259
O           -1.28694976653284       -0.44009313117086        0.83518840341601
O           -0.28447583905645       -0.13964143209504       -1.47033091010488
C           -1.81712723693697        1.58124450451138       -0.12169440960436
C           -0.38285892362511        1.81863025942914       -0.24395929490758
C            1.67970478071752        1.05964994689925       -1.17928993911114
C           -3.51812472085472        0.10659302442553        0.66261609047285
C           -4.51817178221498        1.00623944702517        0.22676286799091
C           -2.78672388893341        2.49385585064268       -0.59051521051034
C           -4.11461379445044        2.19060355948133       -0.42551665478695
C            0.26268352535635        2.91565977961722        0.35047227085988
C            1.61922560976729        3.06946440929049        0.17886669010950
C            2.35950976806709        2.16453715731770       -0.61379940290944
H           -4.87027061058990        2.85533331492125       -0.81672137933611
H            2.13640762542094        3.88240150806761        0.66448521255125
N           -2.21111259085723        0.42864194581858        0.44941477744352
N            0.34790616702207        0.90771951352689       -0.93847059531077
C           -3.86421731142009       -1.08467745665859        1.31467589658001
H           -3.08532812318978       -1.75480767917048        1.64135951926168
C           -5.86465798976865        0.66451990049325        0.44115493145929
H           -6.63190304301328        1.34316637407944        0.09975970340378
C           -5.18931210191086       -1.38174786483313        1.50987950357217
C           -6.19165539804091       -0.51053082370654        1.06835641325121
C            2.38033700831059        0.11803088012505       -1.94258734685905
H            1.83916003071350       -0.70210388000283       -2.38494478449984
C            3.73528688303924        2.29441939622936       -0.84775809915398
H            4.25777503214528        3.13154958263012       -0.41088205757166
C            3.73070203595575        0.29384936928855       -2.17657728417413
C            4.40913010574126        1.37147546170127       -1.61887261954956
H           -5.46038368439269       -2.30084474129919        2.00499091734305
H           -7.22810933765816       -0.76869331864121        1.22451019998821
H            4.25988666670417       -0.41911187824291       -2.78949208138078
H            5.46677850657538        1.49064437883765       -1.79675702717357
C           -2.39213161568502        3.73305652199725       -1.33675644831244
H           -2.57514166167604        4.61936580025663       -0.73058885478231
H           -1.34434154862614        3.71332838362200       -1.62090472280890
H           -2.99566073075511        3.81961892173211       -2.23814485968632
C           -0.47984526699814        3.87230515114929        1.23578711835907
H            0.06779193292941        4.00002142524252        2.16807547156159
H           -0.55337248316291        4.85034019832594        0.76155561942448
H           -1.47933026654578        3.51666982009157        1.46742089140691
