63
 energy: -105.904573359169 gnorm: 0.000832124340 xtb: 6.5.1 (b24c23e)
Si           0.60802721955412       -0.74946798824475       -0.61228866322293
O            1.77245844902995        0.24080910830010       -0.05932403025661
C            2.88383943642750        0.09111338764901        0.79753792831436
C            3.81040114512082       -0.99609339888919        0.30043276382378
H            3.40971957242452        1.05713403262018        0.70560727930628
C            4.33057201409634       -1.99818729525006        1.10571759081978
C            4.14764213203358       -0.97567947289264       -1.04850049447505
C            5.16674528028782       -2.96150983746690        0.56693210373354
H            4.07852966364153       -2.05318584772066        2.15241315461616
C            4.97560336532656       -1.94129065262291       -1.58701934503417
H            3.73829675109937       -0.19979655900045       -1.67857933585825
C            5.49048673225438       -2.93887135757540       -0.77721195036766
H            5.55740923784823       -3.74128265938619        1.20407041316474
H            5.21628429968779       -1.91532593476067       -2.63939301158967
H            6.13589139436922       -3.69787926353046       -1.19411977683116
C            2.41896172629401       -0.06487517811164        2.25167807629098
C            1.57062661055996        1.04607751472889        2.62282439652914
H            3.29026930649156       -0.08547091432510        2.91027793599944
H            1.85758348152080       -0.99626559862813        2.35012020509028
C            0.87341549738802        1.98154013415164        2.88819955925693
H            0.27395208948850        2.79765977032131        3.15916108215898
Cl           0.66106117219914       -1.67319502384833       -2.44971994072311
Cl           1.17248655837244       -2.55275948401219        0.44924080827542
O           -0.79924753685616       -0.71332291349704        0.37906549488703
O           -0.06840725997674        0.66110606558963       -1.55747145674205
C           -2.41931590548550        0.84234297294644       -0.32643659437891
C           -1.44170366426878        1.89328388824280       -0.15101819115177
C            0.68967864466345        2.74360110774394       -0.84228414215140
C           -2.84556184721507       -1.53094544756472       -0.35443014126199
C           -4.16891856689240       -1.29798908417274       -0.79723943376023
C           -3.72967228989877        1.09465888755302       -0.78716693935723
C           -4.57926804510616        0.04041638030703       -1.01249721743087
C           -1.63977313973038        3.01590396370241        0.68260172281075
C           -0.67351993818309        3.98709328707277        0.73647581594943
C            0.50595796483307        3.89455075190516       -0.04205296278102
H           -5.56796036991356        0.22274603431493       -1.40504251213403
H           -0.79291599342065        4.83088335364800        1.39999650810606
N           -2.03911933911996       -0.45176883862395       -0.11928577975060
N           -0.27849663289567        1.78771439910081       -0.84735118496737
C           -2.39323481752371       -2.83577820300727       -0.14566245274794
H           -1.38899048619226       -3.00665734214092        0.20465391389431
C           -5.00296060303990       -2.39840222225205       -1.03124985649124
H           -6.01102256351566       -2.22062844636047       -1.37456318989170
C           -3.24259200603684       -3.89561870369943       -0.38297369847461
C           -4.54491864153768       -3.68107068030478       -0.82722083808889
C            1.83582486527888        2.61110484094661       -1.63315442429877
H            1.93787568024183        1.73768622708929       -2.25489272711578
C            1.51068193865276        4.87123745189793       -0.03194273098930
H            1.37856291044176        5.74644453129153        0.58645618572007
C            2.80104505752168        3.59069070733351       -1.60260701138359
C            2.64486352020413        4.71797301405569       -0.79595952503922
H           -2.88819598665640       -4.90135920418349       -0.22068761767072
H           -5.19608563277869       -4.52201106106244       -1.01050569231845
H            3.68686550213148        3.48670217049512       -2.21052536877640
H            3.41482652948607        5.47415915955245       -0.77763583325503
C           -4.18280408913220        2.47838432209957       -1.15009366125029
H           -4.88749188823019        2.85681291736270       -0.41138678631464
H           -3.34981597753459        3.16959937329735       -1.22808532198150
H           -4.69757873609473        2.44717830529512       -2.10825362843786
C           -2.82512907434604        3.10151146345605        1.59830944513090
H           -2.48400819085219        3.29708968753598        2.61346905256772
H           -3.47802062577961        3.92362437930256        1.30982590399640
H           -3.39557890065414        2.17833702208035        1.60234712840795
