63
 energy: -105.903423053587 gnorm: 0.000597647211 xtb: 6.5.1 (b24c23e)
Si           0.74643671116051       -0.23956168334434        0.65379646647052
O            1.19215501863710       -1.20107260286889       -0.56957949347856
C            2.14316888645758       -2.24170433768850       -0.57697721711536
C            3.52660089172791       -1.68701899697985       -0.35620173970038
H            1.90022530935269       -2.95195325504512        0.22292820587438
C            3.90162476470694       -0.51387119990729       -0.99751843186251
C            4.42080874118695       -2.31195981736506        0.49999353758176
C            5.15385296490272        0.03103432680623       -0.78309661759877
H            3.19245879675245       -0.02385960901251       -1.64842047066702
C            5.67691683451906       -1.76965673177253        0.70888276080831
H            4.12422917893106       -3.21318274306039        1.01583836857563
C            6.04507708195903       -0.59837599122855        0.06944753958849
H            5.43468160850796        0.94930979053707       -1.27833647765278
H            6.36605736887217       -2.25712316407372        1.38265861703411
H            7.02249877218653       -0.17180901138807        0.24130993157977
C            2.04351257434699       -2.94470040684687       -1.94159299061796
C            0.71704569512879       -3.48581776168256       -2.14347288555420
H            2.78555509982653       -3.74601454766181       -1.98234863207146
H            2.25952445464714       -2.21790230705856       -2.72835666840600
C           -0.39800377729418       -3.89915884502897       -2.27439370094561
H           -1.36624862424307       -4.27845596032374       -2.40933188822535
Cl           1.83397293931209        1.28359117903229        1.55327399467144
Cl           1.25632429658409       -1.60795457114633        2.27339411146688
O            0.20966383974818        0.87384871507934       -0.69636837012599
O           -0.87671416922728       -0.32823123645199        1.20297919352841
C           -1.78913573323658        1.88897578056716       -0.08007078971759
C           -2.42330728105788        0.60665203059714       -0.29232370269087
C           -2.34687306439621       -1.76769078826707        0.11508376375568
C            0.21452460479171        3.17622485994929       -0.35646199385995
C           -0.46271644362100        4.34444620913051        0.06409772296682
C           -2.47797835135506        3.03002053925555        0.38725153846205
C           -1.81187492436331        4.22468740832219        0.47777128240553
C           -3.52363008516618        0.43776077163305       -1.15979997925113
C           -4.02184939900288       -0.82342570966094       -1.37389891314819
C           -3.45986194413937       -1.95767519594743       -0.73787509474229
H           -2.31235411474429        5.09149227416139        0.88171250188969
H           -4.83496818039219       -0.96798593477033       -2.06891292247260
N           -0.46171946775230        1.99257345997964       -0.36532346776816
N           -1.89407405566099       -0.49448422186392        0.31110704429208
C            1.54400062454897        3.25004791667663       -0.78586149827666
H            2.03451245815268        2.35239640600287       -1.12115418977677
C            0.23714704058700        5.55869272216954        0.07513666815277
H           -0.27511832691643        6.44878472984698        0.40827620806773
C            2.19753219374935        4.45986022816662       -0.77216865991600
C            1.54950365091001        5.61448319567065       -0.33320175200713
C           -1.75767691335262       -2.85900079404517        0.75700002808761
H           -0.91987806165632       -2.70574077559318        1.41623387909587
C           -3.94427017559720       -3.25763183118520       -0.93022109514915
H           -4.79055311982301       -3.40380558521690       -1.58513356784892
C           -2.26420007971017       -4.12435528721622        0.54996724337055
C           -3.35468124987335       -4.32722231780858       -0.29246681999398
H            3.22283294400296        4.51495902361407       -1.10332980258905
H            2.08000985240600        6.55423296195903       -0.31906785782931
H           -1.80646490678273       -4.96432971447341        1.04839603358615
H           -3.73824244161695       -5.32502998591411       -0.44501321412675
C           -3.88559940770345        2.92908297817253        0.89584902165399
H           -4.56495364394634        3.50182661539954        0.26689780777992
H           -4.22404048361194        1.89881590288827        0.93916515799279
H           -3.93339301241277        3.35037785421620        1.89853258277490
C           -4.09194466794486        1.58585331851386       -1.94067785705091
H           -4.24915884530810        1.27690754336659       -2.97212520577450
H           -5.05814670641076        1.88272575286324       -1.53577751886113
H           -3.43007154028265        2.44599942732658       -1.93364872464741
