63
 energy: -105.898230034233 gnorm: 0.000496172010 xtb: 6.5.1 (b24c23e)
Si          -0.13117923270598       -0.94825074420293       -0.21742718460034
O           -1.54955620116176       -1.47732999160775        0.42932261760022
C           -2.71080253614220       -2.05742960124945       -0.10132891126729
C           -3.92179122725177       -1.31327600759711        0.40504880773011
H           -2.67611504111910       -1.99722377513080       -1.19668629240301
C           -3.99228812507726       -0.92494912701423        1.73716972622347
C           -4.96924425758781       -1.00113613248891       -0.45076419767624
C           -5.09443970072766       -0.23295771592512        2.20598774750920
H           -3.16545843117581       -1.15317547096921        2.39288112557884
C           -6.07503599978620       -0.31527477425614        0.02095338796069
H           -4.91213389086750       -1.29126061064174       -1.48994359708661
C           -6.13965594858381        0.07044689880107        1.34950741240302
H           -5.13951680915468        0.06984343044113        3.24205487069207
H           -6.88575993219648       -0.07550553569667       -0.65199787208945
H           -7.00129415516973        0.60985419056348        1.71561881879398
C           -2.78095829062646       -3.54236967878967        0.31212187896982
C           -1.71070136498900       -4.29014351310753       -0.30989377549065
H           -3.74919462868583       -3.95069718761123        0.01036646548328
H           -2.68629475878872       -3.60857201128184        1.39873488325010
C           -0.80257743884361       -4.85632928852963       -0.84461803044090
H           -0.00930705067866       -5.37250214173818       -1.29579293421568
Cl          -0.78727241587391       -0.80702859225728       -2.19124837687796
Cl           0.99638049018917       -2.26070147310376        0.93128636350231
O           -0.11910742052770        0.47515192768732        0.75116952127936
O            1.43310576288390       -0.31628137060410       -1.04843137903733
C            1.36172914729750        2.13850343687553        0.01381235107370
C            2.45582411895206        1.24373220091817        0.32942337921152
C            3.51373115000610       -0.85029846234157       -0.16098831616685
C           -1.02856285257314        2.41110830331286       -0.16560219017382
C           -0.85238147712224        3.70940576613253       -0.69842447838367
C            1.55985721944506        3.42467960230628       -0.52921193931258
C            0.46991803189847        4.18668992685470       -0.87515798824984
C            3.49804491449721        1.57977178290040        1.22189295593482
C            4.53148765594395        0.69850190398726        1.40718501314186
C            4.59219413043762       -0.52135160652876        0.69191585874451
H            0.61529417057503        5.15322072777036       -1.33276270408612
H            5.30894322803285        0.92310894370263        2.12165958468665
N            0.08119791236727        1.69646823503689        0.18417683029249
N            2.47922727403536        0.02789937763055       -0.27925035814828
C           -2.31063298731558        1.89090758921999        0.01650917254681
H           -2.43262471219138        0.90805598546531        0.43742556256290
C           -1.98976263380306        4.44660308341503       -1.04989020200772
H           -1.85922961005286        5.43566635749876       -1.46267553850996
C           -3.40980372125204        2.64491982906022       -0.33732164478315
C           -3.25132958663823        3.92011554485762       -0.87256377757756
C            3.53159776717014       -2.04324539206965       -0.89221091610180
H            2.70717663476497       -2.26498504503400       -1.54868513360057
C            5.65604231166286       -1.42702623090103        0.80811615534550
H            6.47498511144515       -1.18246412671107        1.46791641196223
C            4.59569277884476       -2.90336176670659       -0.76247001922712
C            5.65595178906450       -2.60151475351594        0.09337814084852
H           -4.39700877059931        2.23376089499892       -0.19357175973407
H           -4.11975931048828        4.49880926301346       -1.14793181232010
H            4.61073399110476       -3.82199940435622       -1.32805533662762
H            6.47915808631547       -3.29286867852891        0.19008044342264
C            2.93294583973933        3.93897541620934       -0.84709362566740
H            3.21615133504596        4.72740713631202       -0.15150107463193
H            3.67879808774991        3.15162015481355       -0.80834619683119
H            2.93341440645458        4.36790286953230       -1.84714232557368
C            3.43496905407839        2.82790552762195        2.05165652191984
H            3.58460009141685        2.56893125763853        3.09828412162110
H            4.22668243275760        3.51945294126721        1.76839209360719
H            2.47627759558224        3.32713970465273        1.95340566500306
