63
 energy: -105.904275792831 gnorm: 0.000501966211 xtb: 6.5.1 (b24c23e)
Si          -0.46609353185314       -0.63754941676259       -1.23398093497894
O           -1.02137648621537       -1.84095790850191       -0.30199651714307
C           -1.69029466315295       -1.79522527010443        0.93752709572417
C           -3.09070983373093       -1.26748118567591        0.76342881532432
H           -1.13570062155308       -1.14108224714085        1.61982533068970
C           -3.80379000112751       -1.55503127776414       -0.39251752568690
C           -3.67273398819404       -0.47363985761750        1.74306301020256
C           -5.07663481019460       -1.04441147130137       -0.57235452714336
H           -3.34495509496691       -2.16237607756201       -1.15774563323261
C           -4.94934643364780        0.03082456757069        1.56527171886855
H           -3.11902577245672       -0.24454806724349        2.64338588371704
C           -5.65156106807980       -0.25044736268393        0.40548216287470
H           -5.61830701955155       -1.26424365886412       -1.48003902530470
H           -5.39225105977588        0.65191425622780        2.33056003144653
H           -6.64398678992223        0.15141513109754        0.26319947039980
C           -1.69528892025881       -3.22628812144636        1.50475676676104
C           -0.35422165397747       -3.60834271208133        1.89048054081115
H           -2.36055777932481       -3.26990127582473        2.37101469637691
H           -2.06416129398319       -3.90445443343238        0.73237673446121
C            0.77594617343388       -3.85595840725028        2.19552520688166
H            1.75865522863712       -4.10208796513356        2.46632059203667
Cl          -1.55849701381162        0.82557629626741       -2.21876753031959
Cl          -0.41913917630326       -1.92969928903722       -2.91366808663213
O           -0.38150079475566        0.46647872706883        0.30312845437324
O            1.22443863898057       -0.41836199485324       -1.39656750598457
C            1.45665267926080        1.86846240267192        0.08511890864794
C            2.28299476124453        0.71591132393968        0.36912235588424
C            2.67497536952422       -1.63093780665691       -0.03897460858800
C           -0.77513215171584        2.74587331756565        0.09417086866803
C           -0.27851805852898        4.04751090752635       -0.14815749728458
C            1.97389245067980        3.14617731588474       -0.22517281688070
C            1.11326711173377        4.20428297984420       -0.35782829231830
C            3.24219587030268        0.71026332758471        1.40458058797439
C            3.90450332607207       -0.45575269236009        1.69987659541092
C            3.64370256394585       -1.65509842351950        0.99223768839108
H            1.49215713543592        5.17474387854920       -0.64018695873659
H            4.60954665525500       -0.47901526363861        2.51686788002917
N            0.10587034402873        1.70783872603640        0.15203745828732
N            2.06500675118320       -0.44097401521360       -0.32161006831921
C           -2.14353038329231        2.54032677654943        0.30366475092349
H           -2.50361704956442        1.54400488424913        0.50070319329693
C           -1.18793615223773        5.11269824616216       -0.19884967036167
H           -0.81208083885043        6.10557771903021       -0.39549189249984
C           -3.00558555818196        3.61021697736882        0.25921447556808
C           -2.53169027748336        4.89678017343814        0.00077476244450
C            2.37969167825153       -2.79269738231486       -0.75482087541021
H            1.65007612500402       -2.76775322468661       -1.54618051893034
C            4.28613450990671       -2.86521722362482        1.28213911092847
H            5.02268011489784       -2.88467483366824        2.07192585909669
C            3.03315658121351       -3.96661720597606       -0.44417095012599
C            3.98458630436719       -4.00690471768976        0.57179751962001
H           -4.05925607643861        3.44757011163540        0.42465525974180
H           -3.22327093079316        5.72436077173479       -0.03987657808611
H            2.79945651005018       -4.86195342616283       -0.99816078384077
H            4.48610387246111       -4.93473639524529        0.80312840760294
C            3.43024996602029        3.33377171422105       -0.53145114936915
H            3.89128696484851        4.01538383503657        0.18116059263754
H            3.96736448717176        2.39081014164023       -0.52401677238410
H            3.52951485550407        3.77731837133065       -1.52095191416863
C            3.48047548927315        1.91544901809677        2.26610600641482
H            3.55374982769788        1.60660406919328        3.30684349797675
H            4.42079960680332        2.39506130105930        1.99905058009938
H            2.68026533072907        2.64321534245113        2.17543076314051
