63
 energy: -105.898089642548 gnorm: 0.000571708199 xtb: 6.5.1 (b24c23e)
Si          -0.40088664924555       -0.51999016250813        0.02251195850563
O           -1.72922041845016       -1.42998293152497        0.12388796161618
C           -2.85335795914402       -1.63251442638694       -0.69288723763207
C           -4.10690587420680       -1.53007710985917        0.13685368397818
H           -2.87345763606732       -0.88134470845425       -1.49044804742411
C           -4.08852785187073       -1.87014517585351        1.48264379552696
C           -5.29573874562052       -1.10898477143143       -0.44461171256416
C           -5.24413392212078       -1.78428520806346        2.23866028507154
H           -3.15865023279130       -2.18500029638070        1.93075798741799
C           -6.45194954926835       -1.03136513537883        0.31108527611524
H           -5.31060603961358       -0.83592607347040       -1.49035004383511
C           -6.42814357132609       -1.36775726332346        1.65440476509337
H           -5.21984351821277       -2.04396509181879        3.28694085983343
H           -7.37281444512713       -0.70165766971616       -0.14783394991859
H           -7.33049480737963       -1.30137147012275        2.24471019844618
C           -2.73404181700560       -3.03553858229045       -1.32386963587738
C           -1.56721212459489       -3.10051223021941       -2.17632230541582
H           -3.63596259389838       -3.24776206517106       -1.90303014969541
H           -2.64095633596753       -3.77024606709269       -0.51969504101901
C           -0.58274712898590       -3.10160244646862       -2.85662585635781
H            0.26677766083510       -3.11646189270900       -3.47192042479158
Cl          -1.08040175220649        0.63593850497668       -1.72198317327210
Cl           0.33371944783480       -1.69540930185766        1.67884919013555
O           -0.12238243463614        0.86722615234822        0.99220001265107
O            1.09385078389125       -0.56972118441142       -0.83174838014107
C            1.76885088612015        1.90854566708844        0.09493430951644
C            2.56086672832955        0.73501127699416        0.42703886546476
C            2.94245817234220       -1.62200629370632        0.11103154315869
C           -0.37370748850758        3.01173533816972        0.12943066467216
C            0.18426252663412        4.15168999637958       -0.49323551589794
C            2.34206051224861        3.02911425399616       -0.54428703656450
C            1.55697222836658        4.11837263643152       -0.83456169599788
C            3.69953762620170        0.81537274110801        1.25663244317784
C            4.44810412091436       -0.31244775085695        1.48887374758281
C            4.11209893040243       -1.55508603919933        0.90204952245740
H            1.98002552755535        4.95582126709500       -1.36819097265140
H            5.29177700185506       -0.26562384962823        2.16048837306836
N            0.44229462035788        1.95607676418655        0.40513019955282
N            2.23399307091602       -0.47858214672800       -0.09871463300128
C           -1.72963418929845        2.98235491319255        0.46529474828845
H           -2.13803723319086        2.10448564165655        0.93787410888411
C           -0.65316616976299        5.24019897517412       -0.77234987995053
H           -0.23135361194088        6.10876927145969       -1.25519305176407
C           -2.52355749453832        4.06966295536222        0.17728288371208
C           -1.98835059585857        5.19818190748451       -0.44214820196697
C            2.54078059770604       -2.83297890832701       -0.45882338215848
H            1.63664289695470       -2.86687088118422       -1.04462942172334
C            4.85577267672694       -2.72689431069790        1.09812658991880
H            5.74560094550966       -2.68096981540319        1.70766874143049
C            3.29670640371130       -3.96372983714980       -0.24779810853132
C            4.45430063312945       -3.91290686730301        0.52839350193183
H           -3.57177490243890        4.04364624547878        0.43174017467000
H           -2.62645852176972        6.03954879947002       -0.66531847112696
H            2.98606622416183       -4.89992860918345       -0.68517446602602
H            5.03241567976463       -4.81059345327401        0.68621850937285
C            3.76604395949046        3.01933113805443       -1.01744907577254
H            4.36469929828056        3.72005234781652       -0.43775280938108
H            4.21210165638989        2.03275350157777       -0.94554728188569
H            3.79978953684174        3.33974301229752       -2.05696172704228
C            4.04769673811433        2.08021697986148        1.98475478598874
H            4.14952492820465        1.86207089239966        3.04626755862699
H            5.00158648142462        2.47258468411316        1.63634871890870
H            3.28530611383191        2.84257216299139        1.86252872461655
