63
 energy: -105.898373200872 gnorm: 0.000890055220 xtb: 6.5.1 (b24c23e)
Si           0.45748298750452       -0.36598260679713        0.45062497934124
O            1.88613555384832       -1.01855530071770        0.81828858420251
C            2.65137278385649       -2.09019813095802        0.33352722232446
C            3.92234362343067       -1.57324983233038       -0.29300082363921
H            2.07585581097383       -2.65327820124440       -0.41065530404643
C            4.42375966322844       -0.32493707588555        0.04780765662798
C            4.61207376700548       -2.35937289216875       -1.20754088489807
C            5.59735495527563        0.13393258504016       -0.52479494709595
H            3.88292954970570        0.28334148061329        0.75697585185282
C            5.78922284907553       -1.90261328179397       -1.77181233639687
H            4.21912093531520       -3.32860354554294       -1.48078107366887
C            6.28374858061096       -0.65399938763224       -1.43254902708842
H            5.97848874754243        1.10896347574275       -0.25768894708768
H            6.31979845018279       -2.52011003892054       -2.48211065841706
H            7.20097724082964       -0.29644070012789       -1.87750878996724
C            2.97481036437008       -3.01596648840886        1.52307534457220
C            1.77036694550697       -3.64173458749616        2.02256460842451
H            3.68539690445487       -3.78091214599987        1.19991279309746
H            3.42992081774779       -2.41451908204545        2.31454152728926
C            0.74747749270013       -4.13128339710722        2.40387710363122
H           -0.12697739186052       -4.58423209353049        2.76342513280212
Cl           0.87700311523118        1.04733217151595        2.02191103043372
Cl          -0.04979882176645       -1.86523918350816       -1.08218969233336
O            0.20675510414465        0.80624309463725       -0.77719920048811
O           -1.13116461385976       -0.41122890943426        1.11886780263626
C           -1.78720522877988        1.88447629259547       -0.20845179376855
C           -2.50860370225790        0.64339346263357       -0.44129568258072
C           -2.83068922705469       -1.67042843041704        0.14492595289347
C            0.31239194209281        3.06552328246070       -0.23971568381785
C           -0.33381463544016        4.25710448252602        0.16177077406029
C           -2.44813390622533        3.05590742279004        0.21787695333724
C           -1.72675385727389        4.21014800928627        0.40368598820091
C           -3.56579056969362        0.56224910785106       -1.37258565573891
C           -4.24122132046454       -0.62373146184143       -1.52775171551816
C           -3.91329057835268       -1.76563387442594       -0.75930191778104
H           -2.21979559807774        5.09428816518081        0.77829573604466
H           -5.01659119468615       -0.70487066167115       -2.27417714331571
N           -0.44267604717352        1.94649420074667       -0.42107536102674
N           -2.18789891981466       -0.47594736186790        0.26677475974769
C            1.69091593665697        3.05039825102843       -0.46607084624925
H            2.16659741343480        2.13313106992626       -0.77134366594864
C            0.43929360593063        5.41331837151443        0.33437148145128
H           -0.05030363136941        6.32282138175715        0.64842349489238
C            2.41962736366119        4.20477703313632       -0.28859162777699
C            1.79680428215392        5.38618072385924        0.11219561021815
C           -2.44264316042337       -2.77726074364829        0.90471842978847
H           -1.60709573355268       -2.68404989483762        1.57919137538927
C           -4.58072965044824       -2.99237360656367       -0.87809132182304
H           -5.40285586033793       -3.07075647756027       -1.57357382137386
C           -3.12125052824242       -3.96639166067565        0.76296425295268
C           -4.18948742810834       -4.07657685646778       -0.12678886543813
H            3.48476454348572        4.19235127842944       -0.46021210125353
H            2.38442723461089        6.28082457519997        0.25069361698411
H           -2.82132550466998       -4.82539891844969        1.34326670732249
H           -4.70646691598197       -5.01858579140133       -0.22822950047270
C           -3.90269254664781        3.04629672116071        0.58587499685086
H           -4.47429937405021        3.66528375317225       -0.10385174034586
H           -4.31660680211999        2.04331488552567        0.58658364611273
H           -4.02068827061594        3.46865856275312        1.58206946280416
C           -3.89759845065031        1.71057543505434       -2.27952270192606
H           -3.93628262317086        1.35438666412949       -3.30714268775325
H           -4.87640136626699        2.11989528589466       -2.03588090206877
H           -3.15895010512936        2.50321739531220       -2.21710445518043
