57
 energy: -108.002344921905 gnorm: 0.000970987624 xtb: 6.5.1 (b24c23e)
Si           0.16531263704322       -0.83282193410095       -0.25004172413741
O            1.45460084310284        0.05384407109153        0.21905922045317
C            2.61801795632755       -0.22931146418630        0.96767434094732
C            3.29605883270685       -1.49336307630860        0.48701811959975
H            3.28292175642672        0.62413192051345        0.74456475903152
C            3.75180029627811       -2.49011601957313        1.33782550915901
C            3.46467762056267       -1.65252715212958       -0.88414436237391
C            4.35178851845324       -3.62645686151618        0.82296539558735
H            3.63075539114628       -2.40492779865550        2.40538194715903
C            4.05297832603625       -2.79259686648623       -1.39746747730547
H            3.10843000005352       -0.88675388468967       -1.55528954588521
C            4.50031445918376       -3.78511171227006       -0.54292192541104
H            4.69403942590860       -4.39782425205920        1.49748092654704
H            4.15629528211796       -2.90522220658085       -2.46631436900571
H            4.95698998480348       -4.67978485299039       -0.93992498596801
C            2.29704263183829       -0.20729966262220        2.46949745216781
C            1.62570674786742        1.02282580014365        2.82533913643168
H            3.22600333324796       -0.28545940491315        3.03867888194530
H            1.64546770730147       -1.05267208067582        2.70162034751554
C            1.06762575283479        2.04859829930919        3.08750342084208
H            0.57478832796334        2.93469661121617        3.35553234166325
Cl           0.12025779232465       -1.82771707564565       -2.02192759004809
Cl           0.43392003185649       -2.51312547659658        1.01722239457370
O           -1.29323771415022       -0.57036230074990        0.62069930735638
O           -0.31774996316811        0.69275774013323       -1.26667758350941
C           -2.41003569678692        1.48049517311446        0.24710702640626
C           -1.21354420362244        2.25464138136540        0.16726975549560
C            0.96417463120768        2.57034401002284       -0.76029225974021
C           -3.54972945713777       -0.62355413392085        0.02625010691570
C           -4.80719348371928        0.03533433112322        0.02712899938157
C           -3.65849813791544        2.13459782515275        0.30652917279413
C           -4.82648606790327        1.44683634592370        0.21556522052725
C           -1.09245214564366        3.48459476639332        0.85295420338911
C            0.05162146664312        4.21062344627605        0.79021975957944
C            1.13394630533517        3.76691915612239       -0.01878858480254
H           -3.66351054760582        3.21113485884384        0.36058025853519
H           -5.77635575708906        1.95572220547951        0.24299826257807
H           -1.90682288701204        3.79372237217484        1.48811701841242
H            0.16505166082389        5.12360904142101        1.35345620026836
C            2.33583537683913        4.47846253598022       -0.09763982831457
C            2.01229664923688        2.18641319339145       -1.61858300481675
N           -2.40399483308913        0.11082983464200        0.21987699031632
N           -0.18796961719785        1.85082441318053       -0.62647415026358
C           -3.55723109608260       -2.01552148638314       -0.15830318774850
C           -5.98664324463055       -0.69343670196572       -0.14889512894052
C           -5.95452271275890       -2.06002475484259       -0.32103947077730
C           -4.73442728430593       -2.71941578860090       -0.32646825844027
F           -2.42537571027318       -2.72404593968153       -0.19739636941341
H           -6.92559859713205       -0.16191715202374       -0.14422691925228
H           -6.86786777676082       -2.61772197788766       -0.45236124323610
H           -4.67052743917701       -3.78681804507255       -0.46591729792944
C            3.18926063080817        2.89918579617005       -1.67838692441210
C            3.36082176252766        4.04167332246932       -0.90378165472480
H            2.44302141475926        5.37780424156768        0.48872517025841
F            1.90102390546283        1.12874984006808       -2.43007393705565
H            3.96587252895318        2.55235348172355       -2.34164118698850
H            4.29046338517993        4.58551604811444       -0.95243267533663
