57
 energy: -108.001053975096 gnorm: 0.000407697348 xtb: 6.5.1 (b24c23e)
Si          -0.32841029783608       -1.12065587460365        0.22640531106442
O            0.67508649465391       -2.14317231177110       -0.57578388655487
C            2.00962843708645       -2.47011343757779       -0.29040483184622
C            2.96716282148529       -1.43608824545311       -0.83011903542116
H            2.13258911716115       -2.54197581830235        0.79851118268185
C            2.63392298223675       -0.67366279507963       -1.94026549731683
C            4.19554852906931       -1.23358360628007       -0.21401535500366
C            3.49408236539618        0.30819261650535       -2.39966720407322
H            1.68418579417911       -0.84159691360475       -2.42394630837010
C            5.06059852746451       -0.26017064497166       -0.68047503286941
H            4.46121120672524       -1.82911596243336        0.64781812735151
C            4.70670847658709        0.52183764059040       -1.76748333219281
H            3.21727858618040        0.90867002267683       -3.25466757694383
H            6.01100068531526       -0.10387413578250       -0.19037968193654
H            5.37586638259642        1.29290059271829       -2.12117295376273
C            2.31069321323050       -3.84291869228149       -0.92511646235779
C            1.54903622577779       -4.88723009923269       -0.27565979084337
H            3.37986050284683       -4.05219523307759       -0.83356057725244
H            2.04396558080557       -3.79958449142262       -1.98411482875658
C            0.90622575302182       -5.72485245086413        0.28647678053022
H            0.34363774768646       -6.46615729330522        0.76956307033943
Cl          -0.18686207082920       -1.77650954790255        2.13587981404561
Cl          -1.83738491485029       -1.60965461032591       -1.08998686166049
O            0.55323666026004        0.25148208540856       -0.25640832439762
O           -1.57070566486975        0.24868023913480        1.03348956382891
C           -0.51484725157065        2.37209383719324       -0.33202050793181
C           -1.84230251319918        1.89623732080517       -0.55303985701559
C           -3.65797270200707        0.47392597552496        0.07322421285050
C            1.67731818196404        2.07970987729953        0.61881762370238
C            1.98230871088767        3.44875516715103        0.42161626997499
C           -0.21571382285843        3.73760613193628       -0.52734681192778
C            0.99808355674031        4.26279909193286       -0.20846694426997
C           -2.67782139432207        2.50668321195311       -1.52055809552506
C           -3.95904600429086        2.10458913714716       -1.70296110929742
C           -4.50542865730868        1.07759907459423       -0.88833876967711
H           -0.99635623900124        4.38003344694991       -0.90015250283152
H            1.21263324059202        5.30595066666832       -0.37526452222413
H           -2.24973002310074        3.26311370255444       -2.15723537062454
H           -4.57623425639470        2.54690115688989       -2.46866177093872
C           -5.83217066064443        0.65242236709275       -1.02472093032410
C           -4.21336281276977       -0.53549515873794        0.88540550283047
N            0.50070201173793        1.56490556866656        0.12349796734502
N           -2.35884544415442        0.88457710123436        0.19354875212876
C            2.61374748480436        1.30158917749192        1.30876353863800
C            3.20961908448685        3.95950669203012        0.85272587047688
C            4.13062614579087        3.14966316246884        1.48190059554357
C            3.82464961017789        1.81918317180696        1.72481799096472
F            2.34645780683722        0.02744632705736        1.63014195479932
H            3.42286130406868        5.00329969134430        0.68186448792471
H            5.08013031349174        3.54849517461566        1.80142567788147
H            4.50688622091280        1.16935264029703        2.24794640385935
C           -5.52128777906993       -0.93572742557447        0.73640720897697
C           -6.33495555179945       -0.34624842320753       -0.22676217310288
H           -6.45100148544840        1.12575072139437       -1.77117109121572
F           -3.50307850422320       -1.12630671170589        1.85084195279477
H           -5.89493463241757       -1.71429591974256        1.38201661162415
H           -7.35604907929393       -0.67506898789779       -0.33651247369488
