57
 energy: -108.002706668261 gnorm: 0.000631522885 xtb: 6.5.1 (b24c23e)
Si          -0.40269000098139        0.69422320420518        0.83937009343626
O            0.43147984551724        1.61719505128119       -0.18038859332451
C            1.48708791173256        2.52091408746325        0.01419304844564
C            2.74048909345980        1.97124619299798       -0.62135678242395
H            1.65370952777643        2.66625863506829        1.08923131258395
C            2.65588433908382        1.03714720880989       -1.64502630901660
C            3.99092949136583        2.38502565155375       -0.18093116683158
C            3.80445519487494        0.51341043324244       -2.21191894634920
H            1.68019959116060        0.71702724608854       -1.97843646230060
C            5.13841811865111        1.86878279092861       -0.75560111800229
H            4.06077561849299        3.10273312692970        0.62339199768946
C            5.04836257985664        0.92885831263983       -1.76948682710780
H            3.72866012857888       -0.22247377891221       -3.00000323525789
H            6.10762704472139        2.19407294062779       -0.40581488136184
H            5.94545386559314        0.51962241497210       -2.21106037556546
C            1.09337475411237        3.86498782294246       -0.62775981246115
C           -0.02437758517663        4.44898652927212        0.08191550132874
H            1.95026880815338        4.54271105148807       -0.60208882138823
H            0.80901113370282        3.68054472411320       -1.66667544265499
C           -0.95292407677418        4.88337420437145        0.69846687080043
H           -1.76544946445802        5.28007954572714        1.22950618715458
Cl           0.35266670859691        1.35105243569641        2.70921871038852
Cl          -2.36857521045851        1.06415450098776        1.43267807223100
O           -1.03278269214295       -0.06355007095484       -0.74483347615908
O            0.20964671460283       -0.86654828461188        1.24505480179920
C           -1.74557605742622       -2.21409428817937       -0.33018973618812
C           -0.38254353443651       -2.62725558165060       -0.20596291157814
C            1.92131033823456       -2.09084551058757        0.21858450690133
C           -3.31117052038127       -0.50571548938012       -0.91701774773719
C           -4.39484565101958       -1.39970140506021       -0.72652928354450
C           -2.80868886620758       -3.13388445235862       -0.19545631766038
C           -4.09853630065477       -2.73697081854035       -0.34423068686437
C            0.01476390122044       -3.86414778382855       -0.75244987896401
C            1.32817814464908       -4.19349769112855       -0.87161668467793
C            2.33302374435689       -3.28317382891809       -0.43444071272731
H           -2.57141637416228       -4.14285134596730        0.10078735957256
H           -4.91318440447642       -3.42409073524954       -0.18055379520361
H           -0.75144189965358       -4.51096801341077       -1.14826905969896
H            1.63012374948844       -5.12298276122841       -1.32619624128566
C            3.69149290503218       -3.55287586896725       -0.61923213777357
C            2.93380150623449       -1.24672421731739        0.70086033085414
N           -2.03827301073940       -0.93057123334590       -0.66542100068356
N            0.58041878753048       -1.83379242686545        0.35906859014348
C           -3.60486417461925        0.79015389083622       -1.38486949818954
C           -5.70811334903727       -0.95901719837036       -0.92753789869118
C           -5.96216048397474        0.33009145554909       -1.33176693018978
C           -4.90449089469286        1.20001168778245       -1.57880020976161
F           -2.63367517206706        1.65267155312890       -1.70152413113712
H           -6.51687691335875       -1.65303536141815       -0.75970320504114
H           -6.97571332259735        0.66907889686141       -1.47487995866202
H           -5.07827078721737        2.20560770447508       -1.92663987312028
C            4.27206134088450       -1.53201640115859        0.51140560560982
C            4.65574517743022       -2.68219781490389       -0.15994092672745
H            3.97042061882479       -4.46372150499655       -1.12577881955457
F            2.65400678889553       -0.12417153009656        1.37243410116124
H            4.99698270654079       -0.83366059263682        0.89639789059770
H            5.70217256758702       -2.89484330973372       -0.30813308477076
