57
 energy: -108.000315300846 gnorm: 0.000648336315 xtb: 6.5.1 (b24c23e)
Si          -0.26111858286284       -1.44321095699303       -0.24389445340938
O            1.31272534583817       -1.10834360596792       -0.02392418992638
C            2.37874832654524       -1.16352468886208        0.89321113933178
C            2.27852812350879        0.00138409492224        1.84969033148586
H            3.27581922586226       -1.02878590040742        0.26667048155526
C            1.12945058682779        0.19959999946242        2.60496744508266
C            3.31843157840127        0.91720772322562        1.94429173616946
C            1.01706321113588        1.31004308586640        3.42283188181969
H            0.32124772998151       -0.51283402117432        2.54665795498331
C            3.20940643944379        2.02001908895880        2.77268895038588
H            4.21756638377185        0.76486258637639        1.36342018922939
C            2.05378923132778        2.22404563176093        3.50682853480584
H            0.11707904053271        1.45829363515329        4.00138800368037
H            4.02702529083837        2.72287456535350        2.84148118108300
H            1.96422701915078        3.08964560445093        4.14692002231090
C            2.51799562697794       -2.50603289725757        1.62840856641268
C            2.68108819122988       -3.57574826303184        0.66772428880590
H            3.39437641685424       -2.44605986513845        2.27979938458441
H            1.62918280572987       -2.69779572196204        2.23038988496594
C            2.80383851190854       -4.40911126981290       -0.18147759264412
H            2.89958917770403       -5.16907163969174       -0.89759324706408
Cl          -0.73656062556920       -2.67825102270959       -1.76625303398931
Cl          -0.66245287020762       -2.74253919520692        1.37283388777146
O           -1.42196768787511       -0.42839627726451        0.51209530700919
O           -0.19242502156577       -0.03692158650442       -1.59513727997871
C           -1.52808405614341        1.83242374422878       -0.17139332990561
C           -0.12915363088066        1.94695292029672       -0.42868517330806
C            1.82505681420789        1.11100531495787       -1.51412418563668
C           -3.50376665478324        0.47000596548725       -0.04004281269421
C           -4.32676031470605        1.62499337464532       -0.08649351804126
C           -2.33768205553237        2.98644564013848       -0.15498155291384
C           -3.69325346082483        2.90101368422801       -0.09734437710586
C            0.61675825836570        3.04456278002793        0.05629990175760
C            1.94572370612984        3.15144082826564       -0.19027105127982
C            2.59975477747671        2.17807573659291       -0.99400676009448
H           -1.85431210662049        3.94483163564517       -0.25342105956948
H           -4.30740136238307        3.78681039146991       -0.10252444693735
H            0.11610334698925        3.75756059307483        0.69046183966554
H            2.52537762428443        3.95958052546512        0.22529086380494
C            3.97100559206450        2.24643554942153       -1.26573168798306
C            2.47576495904464        0.17592508694098       -2.34415268994987
N           -2.13890964038484        0.61860784392836        0.00523876655239
N            0.49910374197058        1.01959672297656       -1.19922261057593
C           -4.14511694803218       -0.77790207035694       -0.02537309587070
C           -5.71805600030021        1.49558403459278       -0.11266183744612
C           -6.31336336902066        0.25309886223217       -0.08764082596589
C           -5.52248304937607       -0.88535906586618       -0.04537896385159
F           -3.44876038674374       -1.91975375875578       -0.01125298996332
H           -6.31818181138816        2.39142777507332       -0.14898351825110
H           -7.38747492482664        0.16061127826708       -0.10250040911462
H           -5.95560677096269       -1.87248950273801       -0.03371205873782
C            3.82810535895323        0.25943162863014       -2.59155955356460
C            4.58352562503435        1.29060408771410       -2.04169906708556
H            4.53791389854643        3.06447000145213       -0.84907937491712
F            1.80543690986151       -0.81031846029242       -2.94435939463104
H            4.28021943940125       -0.48975518206606       -3.22175531291638
H            5.64295801508830        1.33919493077697       -2.23765408793093
