57
 energy: -108.003396575644 gnorm: 0.000709418668 xtb: 6.5.1 (b24c23e)
Si          -0.43536338360942        0.92922577910533        1.21941783704252
O            0.11674242426826        2.14898216346027        0.32004069176191
C            0.19563043988922        2.33457029303183       -1.08136586482650
C            1.36822522493828        1.55095681330818       -1.61756237385912
H           -0.72678218686692        1.97055746852172       -1.53941872750136
C            2.66657057805275        1.87993825374140       -1.24766807331262
C            1.16312343505721        0.45163908145504       -2.44109275909335
C            3.73693537607342        1.12970414102124       -1.70231724243326
H            2.83807067626610        2.71627637105476       -0.58796400117325
C            2.23153729541127       -0.31254318187077       -2.87735088808856
H            0.15701820211980        0.19223193456390       -2.73516361586828
C            3.52275005876866        0.02734998013552       -2.51202025125144
H            4.74334427573806        1.40293410730231       -1.42072871598947
H            2.05652047717625       -1.17258763827392       -3.50824092494569
H            4.35859114941809       -0.56377315124766       -2.85630280017567
C            0.32918000658548        3.84252081356779       -1.34390266737313
C           -0.91993675652921        4.51830436645749       -1.06436564752958
H            0.61146172557499        4.00022163336489       -2.38865852801203
H            1.10573334022033        4.25058377676386       -0.69389775066295
C           -1.96497502081425        5.04845978178274       -0.82478439518666
H           -2.87319358546183        5.52535467538824       -0.60755349483779
Cl           0.19387026436311        1.80184992150622        2.99526579157397
Cl          -2.38914863491632        0.64978876665944        1.90245100115214
O           -0.94868564296246        0.00458724503465       -0.39891271679705
O            0.56180758353115       -0.43057944063797        1.54416435831228
C           -1.02224135969711       -2.25746179068141        0.00569390955833
C            0.40541807170021       -2.29203769533956        0.09223502618793
C            2.52076155537150       -1.26288642755922        0.58711622241115
C           -3.02250863789404       -1.04479053746626       -0.48156394853589
C           -3.80888885432652       -2.20500756964005       -0.26845486249524
C           -1.78474270229989       -3.43597961578304        0.16272317399374
C           -3.13903544423477       -3.41178112430605        0.07148610622810
C            1.08780123853787       -3.39341164351820       -0.46131560115109
C            2.44476819937619       -3.43579810519334       -0.51903405262636
C            3.21113088756972       -2.35144913481338       -0.00706687032616
H           -1.26781043197537       -4.34215756737891        0.43370760438619
H           -3.72386561882425       -4.29892138865521        0.25391996273864
H            0.49791337395843       -4.18307340564659       -0.89799610970898
H            2.95720222579517       -4.27142501867773       -0.96679080534969
C            4.60710732820760       -2.35907934408999       -0.06211913802077
C            3.30368440298521       -0.21681537730014        1.09778719780094
N           -1.67027556203318       -1.10275803262819       -0.29341174646654
N            1.14839015361990       -1.29137399073936        0.66062845828593
C           -3.68760229030783        0.12278261165314       -0.90133198273504
C           -5.20036428997449       -2.14216558405102       -0.40390712397658
C           -5.82027327113544       -0.96932550975894       -0.76432250706956
C           -5.05643439947090        0.16234717684176       -1.03201936559297
F           -3.00572139775241        1.22694790122122       -1.23658396136307
H           -5.77670578323649       -3.03551069909329       -0.22016124094135
H           -6.89330861421514       -0.92237788696558       -0.85655741262594
H           -5.51539392937475        1.08575448872196       -1.34646707766006
C            4.68504269683146       -0.25378590513628        1.05652234956953
C            5.34272633117213       -1.32597937027192        0.47583297938292
H            5.09853891358989       -3.20131973973406       -0.52364050306839
F            2.75583164106620        0.87789035005709        1.63335639303124
H            5.22614137324717        0.57669901376139        1.48079838693431
H            6.42037087143083       -1.34529303302463        0.44593329827990
