57
 energy: -108.002959292303 gnorm: 0.000432191753 xtb: 6.5.1 (b24c23e)
Si          -0.26961152490580        0.40740668629753        0.64779635528653
O           -0.14477018426751        1.42222479620510       -0.59716792613199
C           -0.08517468122649        2.82866853505626       -0.60014543311881
C           -1.43721907006103        3.43287038679989       -0.32221936067317
H            0.62760556058996        3.15962579714473        0.16413606121163
C           -2.58376276313313        2.80835782800052       -0.79330251339974
C           -1.54796750630576        4.61508052369023        0.39577239363798
C           -3.82820522441233        3.35727534371574       -0.54201028326760
H           -2.49240305772375        1.88153528316954       -1.33835043265574
C           -2.79307249852842        5.16681797872323        0.63881325608564
H           -0.65741947120686        5.09410528951174        0.77565563029408
C           -3.93514325304811        4.53886742267109        0.17129771035097
H           -4.71675772230177        2.85988134373806       -0.90278495349677
H           -2.87297975852852        6.08456992592781        1.20302129273141
H           -4.90732714367373        4.96688714239913        0.36878932633841
C            0.41307894653595        3.25430256095330       -1.99384590794625
C            1.72875831759799        2.71797961215819       -2.26475478388354
H            0.43773632773212        4.34567667935419       -2.04499721673884
H           -0.28880172127974        2.87551615255739       -2.74089992508713
C            2.81005015473691        2.24961320002962       -2.47380541191749
H            3.75927939738756        1.84856255019825       -2.67073221427155
Cl          -2.06556014032352       -0.32560854714416        1.44240203530548
Cl          -0.03205970723480        1.74780619795265        2.28263105088389
O           -0.35066095690755       -0.87290376591649       -0.69203979484583
O            1.16072913143678       -0.36584574278552        1.20696527840932
C            0.38276340097972       -2.89604534262420        0.14118583329754
C            1.72264236905587       -2.40140972508179        0.16024225968501
C            3.25877122663601       -0.55431684899273        0.19538459950331
C           -1.90210910590760       -2.59521677811435       -0.49474987402083
C           -2.22768725275974       -3.89658558017748       -0.03586237995520
C            0.08541160952007       -4.21427115524821        0.55474637832923
C           -1.18343051822140       -4.69333987614280        0.50906130845434
C            2.78369899129939       -3.26375432557053       -0.18604621593289
C            4.04609109372403       -2.79489362601286       -0.36793746758530
C            4.31594209732827       -1.40335375768233       -0.22666623304045
H            0.88249183177640       -4.80519185420112        0.97577064213771
H           -1.41912317538732       -5.67811099626627        0.87949782357739
H            2.55310773343321       -4.30015170887583       -0.37185480249193
H            4.84843726419547       -3.45373273562422       -0.65782806715138
C            5.58475549395095       -0.87655800555601       -0.48257682204527
C            3.55546725696205        0.80911385008429        0.34861098673182
N           -0.62663314433344       -2.12836983134370       -0.34790276235777
N            2.02457797548218       -1.09793913852423        0.44963187907640
C           -2.92546639388624       -1.84680702067562       -1.10770653666634
C           -3.54208464159084       -4.36713664442269       -0.13454783557645
C           -4.52745625650470       -3.58811693712524       -0.69304832344683
C           -4.21119070271111       -2.33019427300043       -1.19616725456777
F           -2.68150024429097       -0.65510782864268       -1.66531191588244
H           -3.76521681961226       -5.35531950244450        0.23650740873520
H           -5.54125140752235       -3.94962056035128       -0.75783257919128
H           -4.96066735241233       -1.71242591332137       -1.66433479324222
C            4.81916094435486        1.30967671331903        0.09953764598354
C            5.83847193079029        0.46818178486363       -0.31989745636926
H            6.36549887359694       -1.54746407198732       -0.80576004293817
F            2.62984819486046        1.69287957135377        0.73426341574569
H            4.97963317729972        2.36752552149391        0.23283477792684
H            6.82080709894314        0.86823141649267       -0.51469082982575
