57
 energy: -107.930190759820 gnorm: 0.000626393731 xtb: 6.5.1 (b24c23e)
Si          -0.27117179499427       -1.45535674232009       -1.25485245218660
O           -0.68550343906055        1.18781184406759        2.68359384792319
C            0.05117016140554        0.22574822390870        2.67993591779814
C            1.49352063435354        0.28079887977698        2.41550743440476
H           -0.32593334083915       -0.78627689002229        2.90445968297451
C            2.15391963313630        1.51018583916652        2.41182019833524
C            2.21198114718819       -0.89027925183144        2.18152771133889
C            3.51556612336992        1.56483450620703        2.19068563556199
H            1.58203098369080        2.40684778972342        2.60248579498441
C            3.56959596649246       -0.82474990885283        1.92972591408027
H            1.69817070369634       -1.83861057589533        2.16929113835630
C            4.22313512227691        0.39776907756531        1.94413413595902
H            4.03010272314508        2.51416423517612        2.21089064876724
H            4.12079393040186       -1.73101471745158        1.73034065566272
H            5.28734444549546        0.44384694557840        1.76523252208413
C            0.85603569384387       -4.80384974400569       -3.06404598892375
C            0.54690256833880       -3.54737784560604       -3.00831184079483
H            1.87464936021288       -5.13817890828509       -2.95663575661039
H            0.10965113569585       -5.56475263616702       -3.22337693679566
C            0.22989819558956       -2.29902145702570       -2.89571775040267
H            0.21169226521198       -1.67708345174733       -3.78007991736195
Cl          -2.31808394085108       -1.31108910173136       -1.82037987029856
Cl           0.47145270792599       -2.83958605699176        0.04906019611487
O           -0.67461961605418       -0.48056509074478        0.32142727462855
O            0.59275997392564       -0.06486407377015       -1.76741443112032
C           -1.13255794679896        1.70951400139597       -0.24387846520884
C            0.24228528895190        1.94371441231781       -0.54495280842836
C            2.45009948915777        1.13522066951161       -1.06276389286977
C           -2.82850065474267        0.29828345256960        0.67126629410977
C           -3.79897930341562        1.32005755620816        0.52991968091074
C           -2.08727159707122        2.74566996427549       -0.37869846289908
C           -3.38445947206605        2.55597895535512       -0.03475520725490
C            0.79447942316764        3.21598967545821       -0.28901017701796
C            2.12430748473641        3.46219600616790       -0.42667166440475
C            3.01079813656410        2.40684623564521       -0.78493356119426
H           -1.76889842376273        3.67597126863558       -0.81981251702051
H           -4.11671226878398        3.33470392804584       -0.17828424788912
H            0.13737538196255        3.98487972798403        0.08202741320142
H            2.53260894155115        4.43832842700943       -0.22084049480739
C            4.39270223936954        2.59641393651356       -0.86047919614857
C            3.33514383088955        0.09586800907844       -1.37913665503116
N           -1.55236666238123        0.51569757886157        0.23914963282232
N            1.08500499620165        0.97763360285691       -1.03640906048667
C           -3.23774127419537       -0.90562617130327        1.27517926522460
C           -5.11811360458961        1.10058069466351        0.94279932823291
C           -5.48826674409627       -0.09746739334699        1.50482334905044
C           -4.53869322995065       -1.09901971618795        1.68004930887148
F           -2.37546642801895       -1.90333870260437        1.50678006474019
H           -5.83755354130273        1.89427581074751        0.81367177869470
H           -6.50572733770327       -0.26555676909182        1.81989572223044
H           -4.79785822786741       -2.04160575766074        2.13537640421518
C            4.69992629546406        0.30145150631370       -1.44966655196047
C            5.23190826149304        1.55636203169438       -1.19766981182199
H            4.79089824646975        3.57716317277754       -0.65139390498523
F            2.89801722269787       -1.15258984724985       -1.60755916304404
H            5.32901244382859       -0.53776667983721       -1.69896251927684
H            6.29720868989636        1.71114252291833       -1.26074764419594
