57
 energy: -107.991028167342 gnorm: 0.000913401692 xtb: 6.5.1 (b24c23e)
Si           0.22084933965504       -0.45172437808398        0.30336409980878
O            1.66207488890922       -0.98039001657536       -0.24421347888756
C            3.04238875220972       -0.85481765429959       -0.03770098499049
C            3.70530650079119       -2.12971947282598       -0.51295672376071
H            3.39177882698852       -0.01118199318012       -0.64502202079908
C            3.12696642319320       -3.35944446311665       -0.22968749552840
C            4.90892358291070       -2.08798860221856       -1.20331472280635
C            3.73999918180888       -4.53033252510235       -0.63775533637152
H            2.18643639518113       -3.38914643709355        0.29883595218876
C            5.52513944392789       -3.25979724603860       -1.60580936422872
H            5.36232477045613       -1.13282407740036       -1.42856381152393
C            4.94120545032692       -4.48336314409329       -1.32481057890052
H            3.27924581435942       -5.48242488483170       -0.41850500001914
H            6.46112592632218       -3.21817479483926       -2.14355230319413
H            5.42046689714865       -5.39763644915771       -1.64325373228710
C            3.46914146659610       -0.62684298175813        1.42819186163140
C            3.10340675465141        0.66862802668510        1.95368271996820
H            4.55775865402930       -0.73048034407058        1.47014448583441
H            3.01536055874232       -1.39969888041590        2.05188919396818
C            2.82359295220311        1.74144854767968        2.40537257470369
H            2.56341904318027        2.66604539571342        2.82725877938585
Cl          -0.69818128047727       -1.62254014659227       -1.14910299147302
Cl           0.43478266747079       -0.81149806174108        2.31669130662641
O           -1.50884292997442        0.06267351108221        0.92894297935485
O            0.34928083876084        1.11209538438318       -0.41822090207884
C           -2.51570510309420        1.54320513716961       -0.49607596811324
C           -1.54073842150393        2.53851535748549       -0.14296599991274
C            0.69858191615878        3.33169883861546        0.16278988391926
C           -3.41923123099783       -0.64546982531177       -0.20136489979477
C           -4.45188183792366       -0.36567004454229       -1.13284159036410
C           -3.57663799800147        1.86689688702521       -1.36622951481508
C           -4.50253036181264        0.93267075100812       -1.70862309142147
C           -2.01537222495366        3.82343907217716        0.18245330625905
C           -1.18488433328976        4.80219220916524        0.63409217497781
C            0.22166513624497        4.58654533893510        0.62442504926289
H           -3.59027976484293        2.85067353052069       -1.80745358619295
H           -5.28110035814756        1.15723921245869       -2.41998813928006
H           -3.08114712010921        3.98288054420083        0.14968716372644
H           -1.56912514471068        5.75157003483880        0.96840318397917
C            1.12191927549805        5.59203348660736        0.98550062220336
C            2.07986542945334        3.21719762378731       -0.05051294216843
N           -2.48655317472213        0.31455644812655        0.06817541125097
N           -0.19236760189483        2.31107298296082       -0.08345814336051
C           -3.42482192447762       -1.90849553367642        0.42117696800907
C           -5.39540980204099       -1.35067167020309       -1.44808855543288
C           -5.34565589538160       -2.58816491816377       -0.85154250133124
C           -4.36426615461885       -2.86083140425579        0.09600671394277
F           -2.54189003620090       -2.22101923044939        1.37432368461106
H           -6.16439996027774       -1.11682742757244       -2.16787573835782
H           -6.06977247481689       -3.34658449047448       -1.10298559620762
H           -4.31825278288751       -3.81617088865357        0.59359239663701
C            2.95682322045526        4.23043918962077        0.29203928965819
C            2.48212630178683        5.40831870263004        0.84605545301687
H            0.72915882057739        6.52484338960390        1.35884114553950
F            2.60694642621366        2.15114340028431       -0.66980869350758
H            4.00812371924550        4.07543179935076        0.11110940304874
H            3.17225654169225        6.18582118462416        1.13201360359805
