57
 energy: -108.003135132054 gnorm: 0.000777166392 xtb: 6.5.1 (b24c23e)
Si           0.20526124282555       -0.29421063192821        1.22557430684133
O            0.63702164944187       -1.64354419259505        0.47106316709609
C            1.09946348233019       -1.97148592223870       -0.81584165943815
C            2.32542136378664       -2.84258869643619       -0.69897714950002
H            1.34112150768927       -1.05972714133879       -1.36561221146640
C            2.49697242136916       -3.67307442463010        0.39978486844955
C            3.28241564950803       -2.83352460415248       -1.70507080194269
C            3.61583586279375       -4.48209135340794        0.49196949442915
H            1.75732015662946       -3.66331087878604        1.18519632175184
C            4.39764797624293       -3.64684830485750       -1.61347545681521
H            3.15372784640700       -2.18075019561097       -2.55685008564142
C            4.56643929608829       -4.47278620533363       -0.51443895135793
H            3.74705699490212       -5.11968504334562        1.35351859511591
H            5.13995790846211       -3.63239439276802       -2.39851925347464
H            5.44064348682538       -5.10335132722230       -0.44102105834058
C           -0.01919800629404       -2.72940019878083       -1.56318492237534
C           -1.02418115385667       -1.82390662190812       -2.07014399967041
H            0.41902293291080       -3.28500944107728       -2.39653282839930
H           -0.47537887737361       -3.43350925783068       -0.86332006276227
C           -1.83981861512677       -1.05495852594687       -2.49052748009234
H           -2.55904184061877       -0.39482811833558       -2.87505944665844
Cl           1.56745834417148        1.03612519413780        2.08327373800333
Cl          -0.16693996423128       -1.29514160857971        3.01725491800617
O            0.34083247326831        0.70280926511594       -0.41949012179265
O           -1.41586352077022        0.23672813160358        1.28088523626377
C           -0.84382886204052        2.66763592449963       -0.16720351535706
C           -2.07961704056867        1.95331679332559       -0.20983432491320
C           -3.32591368269845       -0.09187408555820       -0.00632565015461
C            1.53601226597380        2.69435620705280       -0.39678553797283
C            1.56780322702706        4.09712296958264       -0.19455187276206
C           -0.83024478228549        4.07229345569774       -0.00051819691557
C            0.33356912021443        4.76804494942394        0.02071156240116
C           -3.20603363266220        2.55796752596568       -0.80865896687352
C           -4.36739306247917        1.87709848395742       -0.99493245458669
C           -4.45170703015989        0.50220044191440       -0.63211779629642
H           -1.76833185463087        4.56910600084539        0.18506947888039
H            0.34292413886743        5.83031632976471        0.20496268593124
H           -3.10567378450387        3.56867105943934       -1.16937319818961
H           -5.21964313171590        2.34685888756212       -1.45898853683263
C           -5.59643704835724       -0.25722497567058       -0.89027598456060
C           -3.40953806321913       -1.45759895128851        0.30462450357365
N            0.34348999705683        2.02717941380696       -0.33812708348359
N           -2.22539264972817        0.68053210206269        0.27528478158643
C            2.76134337122433        2.05447277096834       -0.66454381840931
C            2.78763044707725        4.78292645122380       -0.20729715752385
C            3.96854036076152        4.11591818962347       -0.43004864160904
C            3.95022481357344        2.74655032216938       -0.67415458271568
F            2.81528174089496        0.74825292073119       -0.96207110705163
H            2.78071337363167        5.84824896764331       -0.03685605131645
H            4.90745731609135        4.64586529574713       -0.42866315321994
H            4.85846713785682        2.20120410811015       -0.87464596343041
C           -4.55120917552611       -2.19072625385483        0.04670709360878
C           -5.65241461324452       -1.58961638184001       -0.54501391835295
H           -6.43772234821503        0.22334753360392       -1.36529895204755
F           -2.37274850198613       -2.12012928711379        0.82797994984650
H           -4.55496471326036       -3.23656045264751        0.30821952867639
H           -6.54063595034105       -2.16875922049419       -0.74037627615359
