57
 energy: -107.648690741003 gnorm: 0.000756989859 xtb: 6.5.1 (b24c23e)
Si          -0.41544051144319       -0.29156930686417        1.39670662832026
O            0.32752170788623        1.08656835015881        1.81517911359231
C            0.61899501066329        2.26624021792819        1.08769320481245
C            1.84437425064389        2.04472990384733        0.23590562136621
H           -0.22328715523519        2.49996650884220        0.43186731099567
C            3.10025682567635        1.89451882179319        0.80985673874394
C            1.71925096542707        1.94650453940293       -1.14382544314114
C            4.21108849688013        1.67337978608564        0.01524533388656
H            3.20938405009682        1.94526641440563        1.88181691812642
C            2.82898040988020        1.71626704801908       -1.93790266304171
H            0.74371119979937        2.05341219925598       -1.59612027052419
C            4.07964793335118        1.58752259562712       -1.35987990246540
H            5.18386452552484        1.56818131691584        0.47145404278337
H            2.71689094095683        1.64278308879279       -3.01032780074929
H            4.94798615194442        1.41681047762680       -1.97854477166846
C            0.79987614319268        3.40622390343994        2.10224322576818
C           -0.48087948779905        3.80865414879409        2.64351120056617
H            1.27636702935829        4.25652495032398        1.60649960532346
H            1.43680620270311        3.05873442869916        2.91812034444476
C           -1.55917173077288        4.11287725574352        3.06279396598556
H           -2.49628013685616        4.38596655637304        3.44675504446500
Cl           0.10097668033749       -1.17702260956113        3.22910813659444
Cl          -2.41863687459922       -0.92686092807998        1.63707650865844
O           -0.91056092649001        0.46361214027431       -0.23458357259932
O            0.53904764317485       -1.45305339095162        0.55270461397044
C           -1.14038759126943       -1.22354675972679       -1.75863389739444
C            0.28392715839254       -1.40289638915332       -1.78615920366196
C            2.47920112486540       -1.45312850566665       -0.78367070494165
C           -3.05882164603967        0.05790302139991       -1.09464566834404
C           -3.89573173666264       -0.79305138163995       -1.86872059273352
C           -1.95767509776676       -2.04016239649262       -2.56761753873239
C           -3.30246982503154       -1.86308558565415       -2.59155011154630
C            0.85855078467758       -1.63354309002748       -3.05153251852550
C            2.20214206562797       -1.72799652632702       -3.20760135308091
C            3.05566566026165       -1.62985859975781       -2.07511561207521
H           -1.49618042718980       -2.85625562153550       -3.09929602069600
H           -3.94079177797130       -2.52626263362863       -3.15285208410672
H            0.20174642206229       -1.66368528675701       -3.90560331031718
H            2.64284862975678       -1.86497898658844       -4.18160262122137
C            4.43716514569125       -1.73429041494056       -2.24451242346950
C            3.37051749566766       -1.40941212730076        0.30758926450022
N           -1.71884925094380       -0.22588028400212       -1.04309311523152
N            1.10295774707731       -1.36115736226659       -0.68915574815243
C           -3.66640688742648        1.15306709748107       -0.44395310807112
C           -5.27648155724202       -0.58020477064318       -1.91879250012923
C           -5.84696062938606        0.46795787486737       -1.23680775415149
C           -5.03621740863328        1.33398336166459       -0.51690875908307
Cl          -2.79868132391545        2.34465495083066        0.45306503940394
H           -5.88131902624304       -1.25516339688504       -2.50410535410412
H           -6.91263512455332        0.62947805480670       -1.26543791320277
H           -5.46756591698763        2.17518702352452        0.00124179202467
C            5.28206583355462       -1.69280785690586       -1.15919210939170
C            4.74011094913633       -1.53613201693110        0.10225161896049
Cl           2.90134838139456       -1.19506746081282        1.95225978212587
H            4.82398139829058       -1.86115905595516       -3.24359704401077
H            6.34907429563663       -1.78451284463913       -1.28491816391324
H            5.37914879086860       -1.50507144722505        0.96921559906113
