57
 energy: -107.649284301708 gnorm: 0.000455736952 xtb: 6.5.1 (b24c23e)
Si          -0.29400046488654        0.27011245672869        1.00471067721185
O            0.32205352909523        1.67286106196689        0.49638935265301
C            1.33062016584248        2.50247313317353        1.01113324348990
C            2.63078400967372        2.23591817764728        0.29371702825998
H            1.45158862738886        2.30853844864284        2.08490158839894
C            2.62243746011009        1.71319398451834       -0.99228922580492
C            3.84485616606733        2.50843962972445        0.90988265825791
C            3.81140330553255        1.45128336812756       -1.64885313312370
H            1.67479877072678        1.50005004113740       -1.46414286255035
C            5.03311095896169        2.25378189657824        0.24927171285287
H            3.85509450842555        2.90644058595038        1.91442117856284
C            5.01908103360276        1.72182195418667       -1.02943605521751
H            3.79514573198991        1.03176587132152       -2.64474500537951
H            5.97371249868960        2.46319775742962        0.73738153798318
H            5.94774658412344        1.51562044405795       -1.54116685012937
C            0.88824287697508        3.96358819140429        0.80182219554256
C           -0.35158307197690        4.21550391101847        1.50474537203367
H            1.67123766807270        4.63295800113189        1.16635317763476
H            0.74139187102471        4.13322449640575       -0.26840700060288
C           -1.38621118143206        4.37243504782537        2.08440333945635
H           -2.29032958351112        4.52178039038690        2.59444940145578
Cl           0.56537869692328        0.17361738709687        2.95974902209077
Cl          -2.22260652529828        0.11537645366002        1.82458500766301
O           -0.99581224174877        0.21355249158641       -0.68250460743388
O            0.53100286329846       -1.20902495769328        0.68303780083882
C           -1.58566138778046       -1.95281068679205       -1.10958112646449
C           -0.19896309905247       -2.27778529910675       -1.28517475898471
C            2.15225783099138       -1.93732814257314       -0.86433990490658
C           -3.27695501604194       -0.26144766356327       -0.91272941411939
C           -4.28737763159720       -1.25728263647923       -1.00390903805227
C           -2.58026177333859       -2.94155608441247       -1.25574287438435
C           -3.89415849006013       -2.61512066473879       -1.15653306088824
C            0.11707287022506       -3.12139404625385       -2.36838544224718
C            1.40097647168125       -3.27909378030601       -2.77777588162771
C            2.45674548369264       -2.64681143837080       -2.06325775583545
H           -2.26849211782849       -3.96734620111496       -1.36793155410357
H           -4.65900397911900       -3.37416829949497       -1.19583601847886
H           -0.69720135855277       -3.55581332223845       -2.92495901654504
H            1.64119050536042       -3.86459486516505       -3.65009774935650
C            3.77115968216490       -2.76391229393973       -2.51755658177163
C            3.24688163438376       -1.47851638148686       -0.10306080412228
N           -1.97065060332332       -0.66662182830359       -0.91810145697215
N            0.82375368783941       -1.76642454367224       -0.53043966560007
C           -3.67895846558844        1.09046007965540       -0.84616531466383
C           -5.63774248486222       -0.89937487945593       -0.94904138044743
C           -6.00404269455535        0.42060793364300       -0.83066370128607
C           -5.02558642287469        1.40518505660532       -0.79650808772655
Cl          -2.57698752022364        2.41391607429117       -0.85340663431380
H           -6.38210338080848       -1.67839583385517       -1.00367406113335
H           -7.04473955077142        0.69845885994378       -0.77849793372077
H           -5.30377263838172        2.44477382802508       -0.73593005323928
C            4.81353969461546       -2.22762144713225       -1.79463247923978
C            4.54362728413347       -1.61521691306712       -0.58494799339584
Cl           3.12589248082016       -0.77187415116043        1.46528219349377
H            3.95123740642369       -3.29381497181553       -3.43994188190107
H            5.82923221196693       -2.30867760357203       -2.14716452272460
H            5.34599211278892       -1.23250807809758        0.02380740061265
