57
 energy: -107.648696133203 gnorm: 0.000430158518 xtb: 6.5.1 (b24c23e)
Si           0.04923363129938       -0.49729555447119       -0.10091998001841
O            0.76203340417119       -1.94202637535454       -0.01945778877475
C            1.85078967510600       -2.44514294523449        0.72225372915879
C            3.13562277069070       -2.14032146697909       -0.00292124758166
H            1.86558449139911       -1.98271970966465        1.71510571532823
C            3.19697086450319       -2.28550204116662       -1.38305841943196
C            4.25444014149931       -1.69666216570574        0.68743415347138
C            4.36388209108810       -1.99023051223321       -2.06425877488873
H            2.31593035906500       -2.60520435982587       -1.91946184670895
C            5.42275472003227       -1.40590031201582        0.00469138725256
H            4.20289210734705       -1.56535736033652        1.75860453136084
C            5.47976093951923       -1.55220956709430       -1.37091113810220
H            4.39991506755207       -2.09592039604489       -3.13878244112154
H            6.28807799885087       -1.05463197657373        0.54782432999013
H            6.38956526372878       -1.31642638581315       -1.90363952766468
C            1.64852956118910       -3.96281610771018        0.87206657459350
C            0.52022920328965       -4.24262356619791        1.73374897236759
H            2.55655690602187       -4.40090945935682        1.29533366340859
H            1.47087305635018       -4.39182471435924       -0.11701515299743
C           -0.41765109560303       -4.42626925037820        2.45344866235033
H           -1.23716722319396       -4.60495732311108        3.08335650423908
Cl           1.06316544957693        0.31711907460728        1.68584731209728
Cl          -0.91929268006052       -1.22228549495678       -1.88763750054063
O            0.34048773337728        0.94640254256805       -0.99848842749965
O           -1.40789439561303       -0.02365882438324        0.67565982767762
C           -1.04844830725010        2.58033866390811       -0.14223728543352
C           -2.22276548229300        1.80778261452294       -0.46759036210644
C           -3.46858486976506       -0.25628394927259       -0.43313844343615
C            1.34529772626087        2.84159879337697       -0.02867328945314
C            1.17474671663193        4.08770905273392        0.63729359042837
C           -1.21708511116282        3.86559825321073        0.40415895199682
C           -0.14310546012233        4.58990959755722        0.81820185965585
C           -3.27653471413492        2.43737351890790       -1.15450077831661
C           -4.36840904005372        1.72893898488228       -1.54765784138049
C           -4.48909010936749        0.35151545041006       -1.21708366802421
H           -2.22205053975896        4.22003049738296        0.56784886719420
H           -0.27157384077388        5.54344408858689        1.30460924717400
H           -3.15578214837894        3.47201733100137       -1.43252949494789
H           -5.14866032941308        2.19152151134511       -2.13042451422856
C           -5.59371275881788       -0.39177911174079       -1.64147044868432
C           -3.64542539136988       -1.60012586639224       -0.04517262783094
N            0.22044741707088        2.14541013294152       -0.38135953260194
N           -2.38856953808476        0.51077235406891       -0.08787920996081
C            2.66082695200559        2.41105845838146       -0.29381733151749
C            2.28477296584451        4.80545228282375        1.09050179946495
C            3.55778574922678        4.32662171460291        0.88230873212489
C            3.73695431094638        3.14564951243088        0.17801827804550
Cl           3.05457230375882        1.00583110335272       -1.21871058343511
H            2.12139671106347        5.73850142072778        1.60685837267891
H            4.41543020597399        4.86976293141350        1.24609029600942
H            4.72970138596359        2.77640348453025       -0.02204649258105
C           -5.71787981115460       -1.71662728715091       -1.29258877691318
C           -4.75342282673768       -2.30510892088143       -0.48882946679173
Cl          -2.56365046732946       -2.46562006532222        0.98420052190703
H           -6.34284185595900        0.09469544611349       -2.24641206257662
H           -6.56316483409288       -2.29620586174393       -1.62796097456951
H           -4.85156404991129       -3.33576388492416       -0.18929444985423
