57
 energy: -107.561133513362 gnorm: 0.000408434933 xtb: 6.5.1 (b24c23e)
Si          -0.39588931822226       -0.71279280809872        0.91266599283846
O            1.85726544964983       -1.37525659113015        0.93585753214864
C            2.38772751391973       -1.94727456090960        0.00718471220931
C            3.83019403017208       -2.14527905729227       -0.10957976196024
H            1.78122903556128       -2.38810548768122       -0.80057086032992
C            4.68864132026872       -1.58120173609856        0.83672308649645
C            4.35614198278749       -2.88636246172234       -1.16816479505354
C            6.05295003583941       -1.75833061124384        0.72262220193975
H            4.25946046353181       -1.00897529044291        1.64572097399422
C            5.72201895022773       -3.06143118232979       -1.27397107272430
H            3.68831783411475       -3.31828730445364       -1.89927999476888
C            6.56960694723020       -2.49824625880586       -0.33098481513508
H            6.71769511486113       -1.32256800698433        1.45342101141411
H            6.13122245515188       -3.63599257912279       -2.09153215646224
H            7.63708978722835       -2.63697135446733       -0.41880287291285
C           -1.62267022585273       -1.65483709189827       -2.73123194811822
C           -1.15007985808346       -1.92663438449736       -1.55329912389335
H           -2.68339903349367       -1.59805059856806       -2.92077729350660
H           -0.97273379882470       -1.49975437224198       -3.57741931510537
C           -0.67949085257395       -2.12656627828753       -0.36618119243609
H           -0.50888145449601       -3.13710575544652       -0.02259587896208
Cl           0.48443542123379        0.79661362738011        2.18960664906418
Cl          -0.58502055612946       -2.02759515053444        2.57161180751573
O            0.02506849940730        0.29102612826775       -0.55312367106568
O           -2.01381228215158       -0.03391559269674        1.01678630136177
C           -1.11319878073174        2.27637515827350       -0.29624629561233
C           -2.35737439495723        1.60708925623495       -0.58817727906937
C           -3.81998784908587       -0.29332854540105       -0.46817172215584
C            1.27274055786511        2.25176633331666       -0.31175344972912
C            1.30597101659201        3.57725343923610        0.19552618779483
C           -1.09884956951337        3.63565513472020        0.05496743296895
C            0.07124241195482        4.25581617854996        0.37569628567182
C           -3.22499140349009        2.23505119209349       -1.49553359106716
C           -4.31626405513860        1.58050061471177       -1.97436917714487
C           -4.61811240854352        0.27326495489715       -1.50508260370089
H           -2.04508557320353        4.14123711654039        0.16479986446073
H            0.07998834977961        5.26334464633574        0.75856501681886
H           -2.95133250371050        3.21056314533719       -1.86495247261643
H           -4.95240087040841        2.02545055920694       -2.72214790448219
C           -5.70359669773371       -0.42807962257250       -2.03675689778933
C           -4.23676651393715       -1.53220200445260        0.06371427223329
N            0.06618153542230        1.62221907514166       -0.43480569587562
N           -2.71184223809347        0.40605947082497       -0.04782771417692
C            2.48851585393528        1.65568599747757       -0.68741771939494
C            2.53628456966281        4.17993307416058        0.47476128625278
C            3.71601163644251        3.51490563894388        0.22397200757081
C            3.69155363493239        2.27104392979253       -0.39282806632273
Cl           2.54104691835388        0.22280364322673       -1.64839185518123
H            2.54277698728773        5.17583603183030        0.88939913741391
H            4.66286609455166        3.97155769845421        0.46491421252388
H            4.60965110273476        1.77827872909102       -0.67114907103015
C           -6.04035154896223       -1.67092669725267       -1.55033201956842
C           -5.31847956097428       -2.20097827105407       -0.49440046722925
Cl          -3.50685172130450       -2.29938694124178        1.42556754036657
H           -6.27324512356175        0.02922904477616       -2.83089301960862
H           -6.87048472094353       -2.21890423428551       -1.96684210285307
H           -5.59248959659004       -3.15354598760883       -0.07186063601246
