63
 energy: -105.894310916837 gnorm: 0.000247885707 xtb: 6.5.1 (b24c23e)
Si          -0.58413713246822       -0.00899010817634        1.42522562542884
O            0.23791623018655        1.38528629568939        1.59055771903617
C            0.65694650698016        2.33898574134660        0.64022321966897
C            1.90401231822240        1.85645845178607       -0.05485584513763
H           -0.13547608939102        2.49465187578082       -0.09633819615582
C            2.97180991166765        1.38270841045119        0.69724949973151
C            2.00525555076941        1.88004459478213       -1.43852262026174
C            4.13741631695700        0.97544485263763        0.07539594731640
H            2.87688120498151        1.33177986662579        1.77136146272987
C            3.17040737567907        1.46675714797348       -2.06086585457752
H            1.17015069249741        2.22964219235415       -2.02938745591422
C            4.24263911253235        1.02670773747006       -1.30441053562093
H            4.96739273093151        0.62070403146313        0.66766704460639
H            3.24216533120334        1.49367469401851       -3.13853511913724
H            5.15748104170291        0.72044041212205       -1.78909622867642
C            0.92533965180808        3.66052368913207        1.38310419626260
C           -0.31414891099852        4.26301495546139        1.82292575123249
H            1.45348164583505        4.34603096134990        0.71429843168879
H            1.55409852483673        3.45082261142652        2.25080522417637
C           -1.36210429646989        4.73352355226060        2.15733038618556
H           -2.26711688749392        5.15771692352496        2.47468947146849
Cl          -0.01077551406128       -0.49845105907463        3.40148960888519
Cl          -2.57759713043569       -0.56954411719335        1.84396682293049
O           -1.10448889763577        0.51587991725932       -0.24227237049374
O            0.22064074698665       -1.39148174227614        0.81431777378605
C           -1.34353269955336       -1.32077412593670       -1.57784061671214
C            0.08327662752130       -1.52323682331154       -1.53832103766538
C            2.18464167321085       -1.85893472232419       -0.40354336871006
C           -3.26932770685349        0.02075398404640       -1.05465617681896
C           -4.09156614262948       -0.93168466700548       -1.71698462142369
C           -2.13666331949793       -2.19181200070443       -2.34549779903738
C           -3.48749199773228       -2.04163755525175       -2.36636596294515
C            0.72186071776428       -1.71543086441517       -2.77617903780521
C            2.07417017704216       -1.82156279754593       -2.85494481658748
C            2.84310571513904       -1.90717765757599       -1.66315301717454
H           -1.65596607198552       -3.02562357930519       -2.83148292486135
H           -4.11879231359209       -2.75359650909404       -2.87364733264724
H            0.11346652807673       -1.68221477235191       -3.66582347858910
H            2.57684039347776       -1.87282243762193       -3.80697752104339
C            4.22330403294721       -2.10923686726143       -1.73436912869500
C            2.92343631517597       -2.16831129505566        0.75807729702825
N           -1.92719865081655       -0.25887287211808       -0.97170206974275
N            0.83362093798168       -1.55484501529707       -0.39872145022736
C           -3.85504750564127        1.20309580016689       -0.54848437422654
C           -5.47901590783938       -0.75735730585637       -1.75065185761882
C           -6.05028844906387        0.34923637009305       -1.17252971668469
C           -5.23332907467758        1.32108043792061       -0.60812442921495
C           -3.08219609211822        2.36066184955470        0.00219075543383
H           -6.08336757723123       -1.50456760929399       -2.24160563005534
H           -7.12087117002227        0.48244350434199       -1.17956239802235
H           -5.68801299947301        2.21271853932222       -0.20319998749337
C            4.95543729763676       -2.30092512698684       -0.58651064706685
C            4.29472308825965       -2.35573673560134        0.62965107406120
C            2.33749638586937       -2.38602591527295        2.11369909610053
H            4.69307878328333       -2.12987951372466       -2.70561717124610
H            6.02356539354762       -2.44717159100564       -0.63191018741888
H            4.86059258222821       -2.57498086170051        1.52279579550883
H           -3.74305404287437        3.21388411221015        0.13373923667086
H           -2.63932542444864        2.12363447092811        0.96627694503685
H           -2.27950347792800        2.64907601777653       -0.67254594369038
H            2.07088784019725       -1.44878402966788        2.59632807243824
H            1.42982564659501       -2.98081577664032        2.06593187889227
H            3.05782245320027       -2.89885394662714        2.74627359309531
