63
 energy: -105.902529436557 gnorm: 0.000344980086 xtb: 6.5.1 (b24c23e)
Si          -0.01878266502721       -1.00735087193960       -0.00852621533230
O            1.21436684189895       -0.16740855603411        0.65458289473374
C            2.21419302535987       -0.58902391927700        1.55842174095139
C            3.19179983700981       -1.49819298054558        0.85848164215346
H            1.73837083101501       -1.13000954719786        2.38446854206055
C            3.83385508615179       -1.06660011679603       -0.29493712694127
C            3.42232107353075       -2.78407779872213        1.32518321840199
C            4.69629884323410       -1.90888697101295       -0.97192846213369
H            3.64469753948368       -0.07136600334531       -0.66899890356917
C            4.28998202059491       -3.62429125073260        0.64952343373936
H            2.90635190832295       -3.13159943472636        2.20746807290497
C            4.92801025419365       -3.18923835713371       -0.49911805164411
H            5.18545471338550       -1.56649748835380       -1.87232480585007
H            4.45944139810249       -4.62556202208115        1.01653072005411
H            5.59873721700729       -3.84888878166887       -1.02978873913750
C            2.91060267307474        0.66763491042537        2.10700588132605
C            1.98353607202176        1.47587765989343        2.86742417352570
H            3.73954488939468        0.35465376556802        2.74693808912323
H            3.30673022014330        1.25498711588248        1.27448877392123
C            1.17659398566249        2.11656761969474        3.47590547350233
H            0.49022391218034        2.68129013987334        4.03236995729289
Cl           0.37064234345199       -2.23429458473172       -1.61457549102921
Cl          -0.07627238206841       -2.61067115083089        1.42713136920005
O           -1.59371548233161       -0.71951099244090        0.56257652944465
O           -0.24374096354197        0.34209246115763       -1.21673376817165
C           -2.29553838109026        1.50583871020858        0.17697659307600
C           -0.99113783770472        2.08536326617518        0.09528408779633
C            1.18490609730303        2.17260025879494       -0.92402052873434
C           -3.82130515575360       -0.35852786396963       -0.06581303711731
C           -4.92157704115008        0.52830335468752        0.07445762697853
C           -3.39842808741444        2.37657179156426        0.31732095196448
C           -4.67241487505907        1.91011431667363        0.30222745007636
C           -0.68613531400628        3.25194710269620        0.83453275684030
C            0.54987165025260        3.80494853100551        0.78025090642450
C            1.52303520984013        3.28960688803117       -0.11741640849289
H           -3.20663627756502        3.43459801132424        0.38687850024816
H           -5.51140610627371        2.57824591796830        0.41488149897837
H           -1.42718520657719        3.63256811474611        1.51750772222783
H            0.81549678124652        4.64007650500539        1.40837845613353
C            2.79411320083092        3.86471851716332       -0.21364031147580
C            2.08974166304602        1.73574701603715       -1.91871041459514
N           -2.54687479971751        0.15944683421568        0.09959796903724
N           -0.03035659558677        1.57198538414147       -0.71501401469752
C           -4.07029242666403       -1.71535991224214       -0.36118358573744
C           -6.23206859274280        0.05179290076299       -0.01870901042178
C           -6.46729591206273       -1.28217539251139       -0.25052826452271
C           -5.39079911639575       -2.13813337770474       -0.43079676727132
C           -3.00732696980923       -2.72204482041109       -0.65582550815408
H           -7.04698015862823        0.75007454325497        0.09587645711645
H           -7.47595646636237       -1.66050699282863       -0.31056885080639
H           -5.58125057219513       -3.17870267212471       -0.64645958025273
C            3.70761147073595        3.37171414408663       -1.11408160321717
C            3.33522680813368        2.34111189806151       -1.96994261154479
C            1.76608939154736        0.70537495855694       -2.95296888018129
H            3.03681093049984        4.69835926649924        0.42706776037868
H            4.69634089393999        3.79845138888971       -1.18351697076716
H            4.03887734239165        2.00261242658101       -2.71654612095227
H           -3.45833615191228       -3.64287029698378       -1.01633734251854
H           -2.32316704768834       -2.35527395356404       -1.41729952547321
H           -2.42318733903341       -2.95489061980464        0.23176366601936
H            1.81488075106218       -0.30099317454543       -2.54189246517864
H            0.76071704545983        0.84168314697072       -3.34247580173440
H            2.47695600285399        0.77409003766632       -3.77365974797148
