63
 energy: -105.893541702618 gnorm: 0.000590208760 xtb: 6.5.1 (b24c23e)
Si           0.14682376290398       -0.28058677345590        0.42466064389246
O            1.23049802544231       -1.38340826853539        0.90218774411726
C            1.74379159619723       -2.57198433097440        0.33946853020460
C            3.03948139061602       -2.26512388684963       -0.36752857380973
H            1.01985845745332       -2.98533862595750       -0.37042421496098
C            4.03934560591262       -1.56639227898987        0.29777625355048
C            3.24617428145590       -2.66491526498473       -1.67987518032886
C            5.23145965351647       -1.27592041133969       -0.34050821581626
H            3.87074539747422       -1.23966212343875        1.31324561671456
C            4.44118057202603       -2.37673871154961       -2.31639647369875
H            2.46652261629249       -3.19833816296204       -2.20390072587765
C            5.43571491462109       -1.68335009838824       -1.64812210582358
H            6.00287497110597       -0.73133362274148        0.18435994123997
H            4.59458174685104       -2.69214326660094       -3.33811869579453
H            6.36747052802928       -1.45869423734867       -2.14660709742859
C            1.98027915919407       -3.58144542880521        1.47733505300218
C            0.73579114716568       -4.12282535835815        1.97574110377967
H            2.60553914190963       -4.39516035408729        1.09936663007475
H            2.50669507569380       -3.07499159249057        2.28947052621348
C           -0.30761107225463       -4.56287555863917        2.36267475862132
H           -1.20972984199424       -4.95840002689177        2.72209017797077
Cl           0.80259922888628        0.88890415620100        2.10574880831908
Cl          -0.62903678686435       -1.50367271835835       -1.24823715273643
O            0.40323689606359        0.94533215559897       -0.73918248980842
O           -1.43682276969359        0.11672202668682        0.94286734036223
C           -1.27121687900241        2.51094079247735       -0.41142002177987
C           -2.31154067035637        1.53793911114334       -0.65141302030943
C           -3.40458505259648       -0.56376253275632       -0.17506779407641
C            1.04899128692964        3.14818229100055       -0.17781319732764
C            0.63717858297511        4.47004735674041        0.14752170429634
C           -1.66386620236893        3.84576872098366       -0.20553844836614
C           -0.74485467448551        4.79723964091671        0.10772338869963
C           -3.32143350622508        1.85844296949017       -1.57672542766934
C           -4.29454316706400        0.95786043515577       -1.87863169590065
C           -4.35733986366376       -0.28496106185323       -1.19269791427155
H           -2.71791207524138        4.07244732471330       -0.21498274110557
H           -1.04714367986414        5.80587826197991        0.34006581891567
H           -3.25023789516080        2.79749431465951       -2.10178231943334
H           -5.02581305461039        1.16618298125467       -2.64332327244137
C           -5.35492866855019       -1.21667188948166       -1.49516694326415
C           -3.53629749702698       -1.74155675909766        0.59245981012382
N            0.06110114508732        2.22669436235358       -0.43049497178766
N           -2.40915079546382        0.36037799853282        0.02377495863416
C            2.42854044247830        2.85823102613890       -0.25818615181516
C            1.58519883919028        5.44286094906199        0.47770507738328
C            2.92369015365383        5.13467404390504        0.46460642359136
C            3.32319535889159        3.86223057687212        0.08044546294486
C            3.00605674376327        1.54687214237628       -0.69128680098318
H            1.24355466572628        6.43318238861362        0.73658963322801
H            3.66160111077941        5.87596404493093        0.72923273224082
H            4.37865064331982        3.63866381941204        0.03811511300002
C           -5.43413916085674       -2.39467779561156       -0.79311451894553
C           -4.54380582719043       -2.62881396842703        0.24623650171978
C           -2.68344018485906       -2.09600545357117        1.77132471233911
H           -6.05625788387295       -0.98906502347066       -2.28313292234619
H           -6.19297064278409       -3.12484073613022       -1.02808992483832
H           -4.63950021452302       -3.54021480323190        0.81738711643412
H            4.07550510890584        1.65114594635814       -0.85865483356133
H            2.85735474424030        0.79464281939216        0.07936094699109
H            2.54493575965654        1.18037748574317       -1.60432982926356
H           -1.69872169124032       -2.43437892013952        1.45183968905214
H           -2.54182022354140       -1.24944861364259        2.43733697942102
H           -3.15391877304105       -2.90340548353798        2.32765247850815
