63
 energy: -105.897469522361 gnorm: 0.000945412222 xtb: 6.5.1 (b24c23e)
Si           0.00770788038703       -0.99607724707410        0.08197171155622
O            1.13931600629008       -0.06258057270745        0.78261706745179
C            2.35926202514689       -0.18677612959754        1.48352343315591
C            3.32175304120284       -1.07456281220432        0.73383736081607
H            2.75928363854190        0.84051697453662        1.48175239410397
C            3.18035644244146       -2.45633843724219        0.71444439704893
C            4.33949521104397       -0.48913763978784       -0.00972105263538
C            4.03600686968079       -3.23288015808678       -0.04729084953818
H            2.39066186295744       -2.93038343059782        1.27452762415353
C            5.19612614930190       -1.26742231826947       -0.76711561627123
H            4.45679628293871        0.58567907250350        0.00247705515906
C            5.04310274003914       -2.64287254641321       -0.79081386459634
H            3.90805145923978       -4.30450771043297       -0.06235680462165
H            5.98080222152067       -0.79770895464948       -1.34248228614793
H            5.70553739103429       -3.25170547155215       -1.38832614325254
C            2.13451726797729       -0.60745937464670        2.94384820589838
C            1.33715619060644        0.39510760995625        3.61639535917348
H            3.10603406270304       -0.70851098315091        3.43394678900952
H            1.60948726236467       -1.56290659531106        2.97958643579134
C            0.66990854972511        1.26448556444477        4.09765090761504
H            0.07777268408790        1.99389537454135        4.56386687910867
Cl           0.50730516769164       -2.26287591844886       -1.46108129652098
Cl          -0.14325050752199       -2.56815363120894        1.54576785833651
O           -1.59415124036327       -0.72117542284435        0.56233769277191
O           -0.21073271156976        0.31831950738385       -1.20326692381688
C           -2.29292415448631        1.49560084008679        0.11941404474555
C           -0.98980021133106        2.07914475941272        0.05707367174718
C            1.21712359293647        2.14954763104553       -0.89726700139787
C           -3.79910849786400       -0.38109459235923       -0.13699764316943
C           -4.90992183965283        0.49256259050030       -0.00598555709049
C           -3.40554245512259        2.35710388211252        0.23593579661758
C           -4.67550694299299        1.87829931767507        0.21477135214783
C           -0.70527148527010        3.24858422936911        0.79931395780085
C            0.52932054927289        3.80545804195173        0.76781459731708
C            1.52492250328696        3.28446456053364       -0.10186956425814
H           -3.22414492647599        3.41760562641930        0.29713160572623
H           -5.52158405686303        2.53932491820612        0.31612830958558
H           -1.46222347433507        3.62867805952455        1.46495714081730
H            0.77765006090652        4.64584359310549        1.39670240557051
C            2.79164556141153        3.87270145791123       -0.17408279982253
C            2.16725984784898        1.68692178301235       -1.83625690797027
N           -2.53171399690622        0.14713500801109        0.04828249467540
N           -0.00978615492253        1.55674207362632       -0.72484138305708
C           -4.02590786643806       -1.73807327081474       -0.44407712919331
C           -6.21280124712967       -0.00352836791021       -0.10394469682328
C           -6.42739944586979       -1.34174793730247       -0.33333446099561
C           -5.33905516753141       -2.18211889062431       -0.51633134786956
C           -2.94183505961259       -2.71913817086486       -0.75065831300670
H           -7.03864629600289        0.68261091772031        0.00539583223081
H           -7.43038708481799       -1.73503498791744       -0.39287371624400
H           -5.51329494670966       -3.22454315200343       -0.73687639308628
C            3.73588347065084        3.37335501976250       -1.03765066401367
C            3.40457264374535        2.30912776426959       -1.86800414406061
C            1.91581401674444        0.59667351971016       -2.82734163343915
H            3.00535906601615        4.72368125766649        0.45444293852850
H            4.71931451830590        3.81464313249637       -1.09175013009113
H            4.13687865729086        1.95110638742744       -2.57647285371167
H           -3.36960794069663       -3.62478247378728       -1.17298415679458
H           -2.23337764636816       -2.30785501082372       -1.46570117189929
H           -2.39094092840632       -2.99289863800337        0.14670385055502
H            2.63651899755549        0.66562360279121       -3.63919572785237
H            2.02479373785327       -0.38103394129348       -2.36138946717927
H            0.91147665451408        0.64953371021187       -3.23745446878686
