63
 energy: -105.897466530252 gnorm: 0.000720101986 xtb: 6.5.1 (b24c23e)
Si           0.11797067525454       -0.95287055608302        0.02897758034224
O            1.18819274390537        0.03763748198705        0.74876641446892
C            2.39544973395713       -0.02529984288988        1.47866922678074
C            3.41766646892827       -0.86341442841648        0.75107453797097
H            2.74290645699882        1.02086204567238        1.48652635630544
C            3.33942706273451       -2.25010211805581        0.72313626693908
C            4.42640170924712       -0.22899152224639        0.03618621210486
C            4.24894316053124       -2.98387260627928       -0.01821211937999
H            2.55782004575474       -2.76196760495058        1.26087917434222
C            5.33689362513550       -0.96452900883010       -0.70094702780195
H            4.49462572433865        0.84997134758471        0.05482394488167
C            5.24727965485134       -2.34539790060802       -0.73295782532908
H            4.17007868937860       -4.06009801510501       -0.03997903893959
H            6.11421738597087       -0.45728510117658       -1.25396411469372
H            5.95216860772223       -2.92093212540884       -1.31469484926473
C            2.16252663541750       -0.46041008132984        2.93371408271797
C            1.28297119633941        0.48415128889673        3.58716963252557
H            3.12662962266680       -0.49649189485628        3.44713264727501
H            1.70241529197919       -1.44903970229860        2.95832591883357
C            0.53956134800093        1.29683462363085        4.05477402640054
H           -0.10774663558796        1.98503577388112        4.51007569272973
Cl           0.70151576654467       -2.22056369447643       -1.48533940039377
Cl          -0.00957630673529       -2.51316560583006        1.50823986949154
O           -1.50325830950656       -0.73231441005496        0.46732024835869
O           -0.11568094751315        0.32741504003410       -1.28449712183948
C           -2.26740820896903        1.45176312814139       -0.02851377502621
C           -0.98469277497681        2.08086306940858       -0.07371208048081
C            1.23247990208180        2.22079133812409       -0.99574920223562
C           -3.70214691293129       -0.47998868066361       -0.28733699885330
C           -4.84451823289688        0.35857875205670       -0.20561897061757
C           -3.41076758062386        2.27695780277814        0.04334030047620
C           -4.66289103732807        1.75514146731189       -0.00453961691061
C           -0.75721683576798        3.27261381566980        0.65213763340644
C            0.45527048246380        3.87699424905883        0.62891081519413
C            1.48302260995172        3.38189005055454       -0.21819880040091
H           -3.26628004833845        3.34385233529905        0.08997742608660
H           -5.53303705397208        2.38897995505360        0.05996137636448
H           -1.53862463060227        3.63461295070912        1.29942666334838
H            0.66054151888759        4.73707842826637        1.24661999503003
C            2.72512100432228        4.02093932411330       -0.28759567894176
C            2.21204520507778        1.78068984924175       -1.91513336140882
N           -2.45879944210620        0.09496836673751       -0.07964806161844
N            0.02831360093957        1.58224484502423       -0.82851433686617
C           -3.87573310197699       -1.85012196817495       -0.57073368647593
C           -6.12719478125119       -0.18180144920654       -0.33195277240434
C           -6.29139751848843       -1.53026969892778       -0.54169654574685
C           -5.17129466509436       -2.33781466527732       -0.67378523239319
C           -2.75285509272370       -2.80360117934086       -0.81946735326346
H           -6.97770189623892        0.47879538744027       -0.26023244883129
H           -7.27881795134812       -1.95725162011488       -0.62468676986713
H           -5.30526350099687       -3.38954186101908       -0.87780000093619
C            3.69931355235605        3.54559870584450       -1.13126251735857
C            3.42270775197663        2.45316503036676       -1.94494018024314
C            2.01472598494771        0.66526787395708       -2.89024389782476
H            2.89596735179338        4.89206877899362        0.32634138133357
H            4.66383065288468        4.02704031890359       -1.18352976614505
H            4.17751873232521        2.11342566628279       -2.63855942683754
H           -3.13992680859855       -3.73438860132630       -1.22588256885530
H           -2.03845382580289       -2.39082407463853       -1.52757330368971
H           -2.21792143529925       -3.03335333206746        0.09960348308085
H            2.74525781943777        0.74565394797778       -3.69218152980389
H            2.14897416276021       -0.30036434281448       -2.40613789068746
H            1.01574059778191        0.67701765349851       -3.31667463441277
