63
 energy: -105.894698923932 gnorm: 0.000684692286 xtb: 6.5.1 (b24c23e)
Si           0.00621710531057       -0.51827229506364        0.02999745958055
O            0.88693365840777       -1.86537192853131        0.17699805422466
C            2.05095739479836       -2.20183044341953        0.89376978879948
C            3.26538432689056       -1.98489491074563        0.02675162977031
H            2.12171134380495       -1.58281078411044        1.79493711962609
C            3.19501232807973       -2.22713476391418       -1.33905979293888
C            4.46137947055273       -1.55068429328190        0.58284432575841
C            4.30570206219694       -2.03117500382793       -2.13965033440346
H            2.25894062132468       -2.55015251702637       -1.76823358504415
C            5.57301643100539       -1.36122798363175       -0.21911408718880
H            4.51550778889169       -1.35256620421548        1.64369243037480
C            5.49714623010619       -1.60034542899847       -1.58105175826769
H            4.24092704627774       -2.21687881240469       -3.20162243057359
H            6.49973081041273       -1.02134142942997        0.21987174556600
H            6.36510640711810       -1.44865409399841       -2.20612452523698
C            1.94319289027086       -3.68388567662586        1.29803040374394
C            0.91446540331285       -3.87111574210457        2.29731330141050
H            2.90743397322679       -4.01424051260507        1.69330013605601
H            1.70246835575157       -4.26914345168807        0.40710439561170
C            0.05678363914153       -3.98158906339622        3.12427502423546
H           -0.68988802805667       -4.09827404681024        3.85123402891242
Cl           0.94120968828388        0.50984490533008        1.74577826171716
Cl          -0.92099528999748       -1.49159913531182       -1.66657648432716
O            0.19247895021423        0.84583921080090       -0.98553401925936
O           -1.47283641726186       -0.14910535345483        0.79544284022042
C           -1.37589611804650        2.39281244288322       -0.27900082693582
C           -2.46645502608578        1.47434419264117       -0.51074019233057
C           -3.55179384549041       -0.66391903243115       -0.20051332572912
C            0.97670243355292        2.95487435167417       -0.25858169287779
C            0.65076098409272        4.23530837666494        0.26795365674756
C           -1.69599234319112        3.69942147828777        0.13212711817143
C           -0.71487911576386        4.58942881421359        0.43836183256188
C           -3.56597660723312        1.93049893269501       -1.26008064461677
C           -4.59573778382671        1.09375008014732       -1.55591722352404
C           -4.61154440270141       -0.23150182281896       -1.04418094610932
H           -2.73525097330897        3.94437646413127        0.28195661414721
H           -0.95328225271894        5.56761211036559        0.82451698308915
H           -3.52699944424235        2.92941689389638       -1.66397819717746
H           -5.40656015951078        1.41475094177770       -2.19026539953347
C           -5.66568395251736       -1.09718999540004       -1.35089847227404
C           -3.61679971289460       -1.94570742993038        0.38921187482263
N           -0.06463745626637        2.08943316164237       -0.49361637475860
N           -2.52457581687898        0.22118817714505        0.01710540066271
C            2.32720032231807        2.64806474330720       -0.53540608850485
C            1.66367243115758        5.14169554326740        0.59442241630096
C            2.98032042703895        4.80970142100502        0.38654963344008
C            3.28911291446227        3.58475820581538       -0.18868692690637
C            2.80610362674864        1.38623013415542       -1.18449707314893
H            1.38872390375243        6.09994285098519        1.00763719357856
H            3.76902904100471        5.49797765945368        0.64787798880229
H            4.32432005856837        3.34483054958367       -0.38004234661043
C           -5.69409008895094       -2.36352397775011       -0.82044596493777
C           -4.68622052443582       -2.75974558334684        0.04834734770581
C           -2.62550728654192       -2.49514188623926        1.36812265638564
H           -6.44957517514827       -0.74886540720246       -2.00560923237082
H           -6.49823238501084       -3.04210145627654       -1.05919287459484
H           -4.73377139018736       -3.74699479619073        0.48300453524023
H            3.84902823367387        1.49256092806482       -1.47397756353471
H            2.73802465843269        0.55184838585152       -0.48988667081475
H            2.22106967809511        1.13485630489922       -2.06467876931076
H           -1.68972727043046       -2.74467399060208        0.87251828055181
H           -2.39950146457950       -1.78327753727784        2.15717749505284
H           -3.02066230702639       -3.40410547065507        1.81525385096138
