63
 energy: -105.804824853525 gnorm: 0.000712764211 xtb: 6.5.1 (b24c23e)
Si           0.67355868726092       -1.30307847832416        0.41608612443898
O           -1.00501842727611       -0.75803261499484       -0.61048971029260
C           -2.18804986317401       -1.05666691701963       -0.37680166096860
C           -3.28415925922518       -0.56273502338126       -1.15938847972961
H           -2.42811890903203       -1.72615245976088        0.45274445749792
C           -3.05297236115550        0.25243414130625       -2.27924580556388
C           -4.60401329359088       -0.85513228078674       -0.78790664960043
C           -4.11188581049038        0.76577039173333       -2.99284363545681
H           -2.03197101121069        0.45819449676557       -2.56277139251154
C           -5.65680351394248       -0.33571229993605       -1.51112032822788
H           -4.78308119582089       -1.48918153632024        0.06732833551826
C           -5.41626642793152        0.47902715890755       -2.60865556903622
H           -3.93068567768241        1.39173294452003       -3.85411596571158
H           -6.67279577177322       -0.56207950563720       -1.22335491491812
H           -6.24465077410504        0.88569764915957       -3.16929811434917
C           -1.80331151775459       -4.38367402491350        1.11881786649057
C           -0.98343931351291       -3.42918057238049        1.43459183383071
H           -2.87527927442156       -4.26279052231920        1.14445417944299
H           -1.43633866411837       -5.35176313075499        0.82142032855353
C           -0.16448927599378       -2.46565438851033        1.70259992315873
H            0.20956538283505       -2.36225796464889        2.71233314194948
Cl           2.58245452405005       -1.45497608993320        1.44366256865887
Cl           0.76182308265762       -2.82085968974245       -1.08719683145141
O            1.45442116823560       -0.23007158873252       -0.82795767783526
O            0.23106755706029        0.19622463752977        1.40175129010608
C            1.69814189359465        1.91057414120324       -0.06607337214393
C            0.25402238033807        2.03100696336882        0.01529582059227
C           -1.80296235766756        1.34619226885851        1.01574655851089
C            3.63686037198145        0.62436106018055       -0.57731151586585
C            4.44324252020536        1.66439112649635       -0.03183181405831
C            2.48388930125526        3.01364178885422        0.29758444503777
C            3.83492105075454        2.87310170023941        0.38466334327695
C           -0.39455812806563        3.04762961794838       -0.68662993322617
C           -1.75900969928151        3.12142926078544       -0.67476755706072
C           -2.49632959330664        2.27159760273131        0.18607135363223
H            1.98389607534749        3.92230245915602        0.59314687182522
H            4.45642110245497        3.66954038415543        0.76221222937408
H            0.20137166853922        3.70852082893447       -1.29595565916240
H           -2.28775684075151        3.83117174410835       -1.28963685194902
C           -3.89069788671273        2.36430520675336        0.26215075718940
C           -2.51487642483122        0.65630516473073        2.01949656048911
N            2.27103791115084        0.77084432149766       -0.48882450494047
N           -0.45287380348558        1.18080609856808        0.79918470150411
C            4.26868859886773       -0.47400295646885       -1.20504204613937
C            5.83334343411816        1.50664766323347        0.04701310868315
C            6.42523204190737        0.37038756538072       -0.44159928251957
C            5.64463089282630       -0.57896088616517       -1.09146085449601
C            3.56350379041936       -1.50020608667245       -2.02203741816258
H            6.41956055246142        2.29687342859028        0.49017140201915
H            7.49221328279819        0.22938115423767       -0.36399108802232
H            6.12736891209012       -1.43368330117852       -1.54080396134211
C           -4.59044377704431        1.59240159809327        1.15952567402573
C           -3.89751796030774        0.78528036058463        2.04902888712833
C           -1.86153516385813       -0.12509534728905        3.11348035698799
H           -4.39995141411630        3.05388733510432       -0.39260984381928
H           -5.66659003108753        1.65098243009400        1.20824847677218
H           -4.44438198035928        0.24556499140944        2.80777557124994
H            4.26615107898881       -1.97566439541981       -2.70225594128753
H            3.13739433701991       -2.27250482745209       -1.38413645767575
H            2.74379993798713       -1.07560070585221       -2.59317615205898
H           -0.95314370197267        0.36259650089047        3.45666269890970
H           -2.54859128926290       -0.22753703789014        3.95078708029519
H           -1.58341114288191       -1.12108955362574        2.77126804243404
