63
 energy: -131.235860130457 gnorm: 0.000946038871 xtb: 6.5.1 (b24c23e)
Si          -0.22810225528332        0.52041118229355        1.40549524153054
O            1.32534571578232        0.70684353196317        0.93003685022199
C            2.24486425159723        1.78237715502159        0.95738544301995
C            2.54518051767566        2.11678954436593       -0.48722202753318
H            1.76181293920535        2.64518348526967        1.43427118658319
C            3.79458709560515        1.97421937768832       -1.07326040268004
C            1.47648685038642        2.53542166532753       -1.27567554172180
C            3.96976613235955        2.24258552332643       -2.42145694902109
H            4.64517995095596        1.66156955679335       -0.48797683249734
C            1.65030321693858        2.79262632034866       -2.62188165328142
H            0.50654944786487        2.66300086671987       -0.81789943099394
C            2.90031518472932        2.64421059416725       -3.20076550736978
H            4.95055009302800        2.13738526038949       -2.86272185789784
H            0.81151802944953        3.11899966632805       -3.21910798883395
H            3.04063785069453        2.85022896489188       -4.25191385905061
C            3.45862243507137        1.36833188516197        1.79824339973414
C            3.02087818601540        1.01693505828032        3.13454470588427
H            4.16225262133935        2.20314164562599        1.84498522221578
H            3.94787529287920        0.50073154677909        1.34593058737719
C            2.60072704204379        0.71064221154236        4.21129591693130
H            2.23894499477926        0.44269301318462        5.15791213295883
Cl          -0.94376951236729       -0.43727229790607        3.03916483461765
Cl          -0.51627264923371        2.50619744305126        2.04722660463807
O           -1.45254767956418        0.81726589894428        0.21012567580123
O           -0.01452021138799       -1.22161283253995        0.65529191461756
C           -1.39620935105684       -0.69961477469365       -1.59017537939147
C            0.03720405048339       -0.81767034563447       -1.59872647840408
C            2.01472070013252       -1.50410250072683       -0.46508943430900
C           -3.47578662205115       -0.10357085310600       -0.55762647310124
C           -4.14655274473056       -1.01999079183044       -1.41950956862845
C           -2.08606379029509       -1.39919669492688       -2.59430806067234
C           -3.42383320111854       -1.61482847320739       -2.48804745620832
C            0.76739765721552       -0.62358187333538       -2.78467173442541
C            2.12320078089656       -0.72297225370667       -2.77757324525364
C            2.79061092574728       -1.16573107996817       -1.60511400172186
H           -1.50805523104190       -1.85867353351077       -3.37948778236507
H           -3.94962323890809       -2.23841303983624       -3.19169897019987
H            0.23581748509620       -0.29826921128099       -3.66417853713128
H            2.70684922869713       -0.47262634039258       -3.64790930787620
C            4.18376190755857       -1.28445670489125       -1.55772660547293
C            2.66090295973260       -2.11807058119481        0.62846852476589
N           -2.10403946593621       -0.03815084106200       -0.62704076205666
N            0.68003705919070       -1.22180328460891       -0.47811497862235
C           -4.28392294476004        0.67098023130486        0.30168956232585
C           -5.50621055778778       -1.29274561412769       -1.25216360579098
C           -5.62993162246981        0.35224079220646        0.45871251318755
C           -6.23486124866875       -0.65401122246800       -0.27409658084814
H           -5.97043165298656       -2.01271400672752       -1.90768150462753
C           -3.83887040155318        1.92050988353956        1.02668974380791
H           -6.22070130465420        0.92405735443012        1.15592440437960
H           -7.27419686152098       -0.88897487878649       -0.11391333041067
C            4.80908303953886       -1.75296314499420       -0.42526372775611
C            4.04422356383714       -2.20433387457487        0.64382420577662
C            1.92456746030128       -2.80865153831555        1.75140042794403
H            4.75487010140024       -0.99801686482005       -2.42693987953505
H            5.88443229611564       -1.81403705459535       -0.37536819608444
H            4.53256626004684       -2.64902704157041        1.49669922054707
F            2.71712175447866       -3.75793411626759        2.30450925052766
F            0.84651916301965       -3.48277821746533        1.32735613210455
F            1.56963107600064       -2.02258183472324        2.76257353818648
F           -3.25723095283065        1.68147220195641        2.19863205418448
F           -4.90778171391967        2.69743095768528        1.31602954314153
F           -3.05565310375948        2.70613289921743        0.28067781479195
