63
 energy: -131.162089621966 gnorm: 0.000378655283 xtb: 6.5.1 (b24c23e)
Si          -0.42008493914745       -0.62192591766735        1.54446328906532
O            0.52242942307448        1.81943426299467       -2.32410074704434
C            0.93649816207716        2.18848960185027       -1.24628111611743
C            2.34603156063840        2.46766236427902       -0.95211075287942
H            0.25820234409645        2.31579115269144       -0.38744813176428
C            3.25804440111476        2.63444162349181       -1.99586299758599
C            2.78315358626345        2.54902124795443        0.37020138126701
C            4.58786480253671        2.88119525355665       -1.72156712982568
H            2.89670248464554        2.58108002414157       -3.01245452631877
C            4.12187131795137        2.77048422502079        0.63539398412123
H            2.07671381222980        2.41536471536684        1.17573468675140
C            5.02190742652708        2.94038651856309       -0.40542178750747
H            5.28958988660871        3.02684687930060       -2.52967396868399
H            4.46290145823897        2.81763958494873        1.65822120011443
H            6.06452055290006        3.12548666070724       -0.19181806542973
C            0.86940125842188       -0.55226414233653        5.29135266380902
C            0.60901037089514       -1.10320190970656        4.14931305511579
H            1.83923857829311       -0.13525718366234        5.50554672923973
H            0.12984036317067       -0.49142156523228        6.07276862984067
C            0.33840165540979       -1.60545357148917        2.98811496675298
H            0.49467431730909       -2.66153936285361        2.81955654042954
Cl          -2.13698903639304       -1.99986203992462        1.58788201486547
Cl           0.09728411296766        1.26385549482585        2.21207897480244
O           -1.29227426526403        0.29742764294792        0.26478350589322
O            0.72516704446399       -1.26740617769736        0.42859177063557
C           -1.42163958931672       -1.12975980636437       -1.54174877635542
C           -0.01200412155254       -1.03770121859586       -1.80962868334073
C            2.31470353395383       -0.83802603234847       -1.22175669186689
C           -3.41216263791972       -0.29057601089779       -0.50967510853048
C           -4.19363654440848       -1.23274576310090       -1.22962766915621
C           -2.19892840638983       -2.00326519304659       -2.33013980861615
C           -3.53912994322184       -2.10589505709106       -2.13779925139683
C            0.33074165865877       -0.97105717111845       -3.17372019875539
C            1.60711255802382       -0.73488578650210       -3.56634202503783
C            2.63521198099887       -0.63534154859317       -2.59417692054210
H           -1.68967874192403       -2.65825092576562       -3.01825510433154
H           -4.12333275338213       -2.84192376446927       -2.66602961634150
H           -0.46594167829250       -1.00529594985382       -3.89750006523373
H            1.85552120737530       -0.60013621684089       -4.60580923750646
C            3.94524352096979       -0.36754213639863       -2.99772186794288
C            3.39520845029494       -0.87597970500406       -0.31000222029277
N           -2.05107028586744       -0.34443040237366       -0.63403731151849
N            0.98988186894246       -0.99445646717984       -0.87903119195723
C           -4.08566446627062        0.64988287914678        0.29739156524159
C           -5.57624330647610       -1.29893850925322       -1.03405422049989
C           -5.45764641107669        0.54266565095235        0.47647899907875
C           -6.20109634078154       -0.44053158860681       -0.16053765310123
H           -6.13945890714927       -2.04097644419959       -1.57854639975498
C           -3.42667454440271        1.83185053534284        0.96968590306172
H           -5.95900515093832        1.25095686191993        1.11683410344910
H           -7.26275659185255       -0.50607576356871        0.01395714213116
C            4.96477147394380       -0.31069148884430       -2.07731195165161
C            4.68359066163375       -0.58645926926080       -0.75153324885289
C            3.30020131574538       -1.26202422644980        1.14865271444549
H            4.13583409828466       -0.20738263456953       -4.04730224821479
H            5.97458419620626       -0.08530956377443       -2.37799084303595
H            5.49218126923801       -0.59082299706592       -0.03946754541187
F            2.72725073283129       -0.33125194926733        1.91471701317339
F            4.52742215071875       -1.43201894267107        1.68809939517025
F            2.69355517657613       -2.43820667230200        1.35079450414756
F           -2.87817080704382        1.53431148372066        2.15140401356196
F           -4.34171196405596        2.78985699686334        1.24050454268615
F           -2.51391134252559        2.44971141555921        0.21353779429803
