63
 energy: -131.233435935463 gnorm: 0.000362080767 xtb: 6.5.1 (b24c23e)
Si          -0.46007491211046        0.09869589683884        1.11257905625955
O            0.56209416545765        1.13265605144015        0.32736823556240
C            1.32923162712455        2.25109206487056        0.69128005868684
C            2.58270698608848        2.25235151014001       -0.14980850068774
H            1.58341580013412        2.19150498023114        1.75643620089972
C            2.48751971001476        2.05890159273829       -1.52259587826319
C            3.82841786376185        2.47943243956178        0.41741215921007
C            3.61705026671532        2.11202147377454       -2.31786081948433
H            1.51857512460387        1.86804994977367       -1.95963614836871
C            4.95943529913895        2.53127562385779       -0.37922821332554
H            3.90812943414863        2.62085131175441        1.48518548555512
C            4.85547092528981        2.35511128550182       -1.74825981372786
H            3.53032199125846        1.97268710473649       -3.38591020728046
H            5.92441824553397        2.71500517655103        0.06982588619334
H            5.73674618897932        2.40786383888938       -2.37057437344222
C            0.54695547338929        3.55632159424909        0.42246357711559
C           -0.42737724361439        3.83033573511191        1.45522873178460
H            1.25812034970630        4.38577601622971        0.36532911287007
H            0.03842781030199        3.45594650898747       -0.53958898098040
C           -1.21684827883505        4.05944042512948        2.32382276166378
H           -1.92018848468059        4.23898319927366        3.07993213989597
Cl          -0.24890163020911        0.87763727707563        3.00099822535818
Cl          -1.98278338418164       -1.33138038760585        1.95344719705057
O           -1.50090149884404        0.28050722195796       -0.29131783493919
O            0.37474732946130       -1.34202186764684        0.58677318697390
C           -1.49920098402373       -1.72651338406841       -1.41511056558887
C           -0.07930865693695       -1.61042940589150       -1.66707818068232
C            2.17778963055971       -1.29073382629116       -0.91866475300617
C           -3.53825385124213       -0.82973377919335       -0.53837666383569
C           -4.21601883906820       -2.02792002593657       -0.89027454200124
C           -2.19122956807485       -2.84308861641792       -1.91090280668809
C           -3.50562034559637       -3.02741742942136       -1.60455477321779
C            0.36916603056105       -1.76866217290611       -2.98631045452596
C            1.67702959508898       -1.55590946748572       -3.30195576553529
C            2.61813824266577       -1.28731665330700       -2.27336198124301
H           -1.63241061382507       -3.59340506532595       -2.44691519615511
H           -4.02135307429156       -3.92995489397607       -1.88999957647540
H           -0.36291463300334       -1.97227230364808       -3.75133904869431
H            2.01713424392960       -1.58823964187489       -4.32407896933156
C            3.96266295005158       -1.06106553401295       -2.57933427482450
C            3.16119097405272       -1.21224100313621        0.09068565493818
N           -2.19497653340198       -0.76160912392609       -0.76655840645284
N            0.83609497491017       -1.39206898321224       -0.67979264067818
C           -4.28927704494381        0.23056087957991        0.01159782216796
C           -5.56160764833026       -2.19623526670586       -0.54514760520731
C           -5.61711830793650        0.01713618119742        0.35091494285232
C           -6.24445645736524       -1.19793719168557        0.10801655610930
H           -6.04822289142821       -3.12522679256105       -0.79869108840678
C           -3.76676499508405        1.63778405631012        0.19131677348490
H           -6.17947151621159        0.81922911484098        0.80174261766833
H           -7.27195641575867       -1.33565303262335        0.40328517777763
C            4.88387911397473       -0.85303103543556       -1.57868007088471
C            4.48333026142909       -0.95772534245769       -0.25729078629509
C            2.91328017715507       -1.47478852279807        1.55778407935167
H            4.26187904039239       -1.05391453692355       -3.61577440806124
H            5.91590722734297       -0.64890909798556       -1.81104958824294
H            5.22034940458984       -0.86214644971602        0.52339477130120
F            2.16531190605690       -2.55877580992907        1.78701162273630
F            2.38933806041638       -0.43978039652091        2.21907971437384
F            4.07780854239626       -1.73250860694984        2.19465988873796
F           -3.01052890968730        1.82625131606830        1.27120082231441
F           -4.79242134787017        2.50709842088577        0.32655859617308
F           -3.09472390011864        2.08844140002330       -0.88103213851990
