63
 energy: -131.237678751307 gnorm: 0.000512004281 xtb: 6.5.1 (b24c23e)
Si          -0.01689979114499       -0.28675770380377       -0.39604539086546
O           -0.05258061861684       -1.75187204925641       -1.06289510526388
C            0.51949805433571       -2.99360797470769       -0.69781258846111
C           -0.31694551763905       -3.69283685614887        0.34211087985944
H            1.52822774765212       -2.81815742538866       -0.31085837738490
C           -1.68136012064415       -3.85073741067313        0.13956373184445
C            0.26290951186214       -4.19560858983384        1.49830545188754
C           -2.45746104977296       -4.49489540647672        1.08560688858997
H           -2.13380592638791       -3.44446433150316       -0.75169256664620
C           -0.51375499098660       -4.84588098892784        2.44116196649032
H            1.32237477296873       -4.06525608898444        1.66445326786534
C           -1.87468400891247       -4.99617357828347        2.23719213701147
H           -3.51987332047192       -4.60416073579409        0.92410666715496
H           -0.05528094437517       -5.22988876304625        3.34090693800422
H           -2.48081536389678       -5.49920504560074        2.97686825087264
C            0.60006864649802       -3.85204544513823       -1.97247182004769
C            1.52348602104908       -3.29884522308949       -2.93917187357042
H            0.91852201845413       -4.86011620108974       -1.69245100726024
H           -0.39593932896390       -3.90464684778117       -2.41805150337143
C            2.28334241926686       -2.83968765687300       -3.74076939477355
H            2.94850305801979       -2.42907712246508       -4.43974623028221
Cl          -1.10356487731663        0.37951495154197       -2.12023329244164
Cl           0.99629890706917       -0.89200019392679        1.43529727418453
O           -1.04954464852593        0.63078526308423        0.67880853509889
O            1.15643650622016        0.95215323386204       -0.71940509896999
C           -0.56473328071109        2.85620413747973        0.30151559862660
C            0.78183752104574        2.66598537718270        0.79530982102743
C            2.88678550489479        1.52256409495651        0.75485086839316
C           -2.74710025298876        2.00039543075131       -0.17780860963370
C           -3.09317050312846        3.23289162709000       -0.79396975275641
C           -0.95962157675358        4.13160552082799       -0.12730331588743
C           -2.17058480872634        4.30900243627540       -0.72761763755490
C            1.24722600403123        3.50588619015525        1.81700513271761
C            2.44676321428065        3.26101743147865        2.41635942879522
C            3.29096814422287        2.23473240675249        1.91749805578516
H           -0.24158223524971        4.93366841690557       -0.06768773128776
H           -2.44189131015060        5.25727549147580       -1.16218277309512
H            0.58704097554644        4.27650148532866        2.18127884027266
H            2.76848148180070        3.83163118330744        3.27211868164015
C            4.51478096260997        1.94032213087219        2.52713786876165
C            3.82148559005450        0.66286494678233        0.14236339589845
N           -1.47215461894607        1.84753294143728        0.28225301210517
N            1.62025839811681        1.72410121524124        0.28675363184548
C           -3.74171612980363        1.00952367951639       -0.05652543094418
C           -4.33422441204398        3.37028334075171       -1.42487028684914
C           -4.95582247327673        1.17911359104431       -0.70601733030325
C           -5.23830547333564        2.33382587492993       -1.42286059080398
H           -4.56514394749842        4.30405934424456       -1.91339662667595
C           -3.61128226341713       -0.19835857835496        0.83962474941243
H           -5.70134041004437        0.40318337641990       -0.63657505968671
H           -6.18120399819411        2.42576287952464       -1.93687023895198
C            5.35231458489336        0.98897230522043        1.99185318683962
C            5.02057395282311        0.38756550868830        0.78659600718229
C            3.65303987300578        0.07919700007709       -1.24058016170341
H            4.78669044045734        2.47429125663267        3.42433311427658
H            6.28138381492928        0.73764609213973        2.47707793679894
H            5.71630907049696       -0.29710633864569        0.32853988875311
F            3.21210717306006        0.97489775485733       -2.13464031550458
F            2.87420163522089       -1.00112215298288       -1.30073970138683
F            4.84539867774915       -0.32522983388781       -1.73156109447663
F           -4.82818324883474       -0.71861181942870        1.11228225002991
F           -3.09921908125731        0.10578224353201        2.04174294157212
F           -2.91206915061862       -1.21317379827452        0.33158150724355
