63
 energy: -131.151679517359 gnorm: 0.000326862220 xtb: 6.5.1 (b24c23e)
Si           0.30368845749058       -0.86597337453473       -0.33733532387296
O           -1.99792659850291       -1.23369212378153       -0.52009936972553
C           -2.44863005731648       -2.26846628195374       -0.96493258362232
C           -3.86502272818558       -2.49504614681374       -1.22361693931777
H           -1.78102869379155       -3.10600232433421       -1.21206905548832
C           -4.79651153068566       -1.47934499923685       -0.99447337917730
C           -4.29730292719622       -3.73596764079663       -1.69468756148220
C           -6.13799104150703       -1.70615940778317       -1.22663343929850
H           -4.43972253304539       -0.52362335820034       -0.64068791990641
C           -5.64157773015980       -3.95599995685774       -1.92438129714577
H           -3.57263505325492       -4.51553743072384       -1.87635098014483
C           -6.56104626563119       -2.94430864520752       -1.68861108499095
H           -6.85955817346667       -0.92258353850185       -1.04924531563565
H           -5.97806210158296       -4.91542581956848       -2.28766491227760
H           -7.61133990490158       -3.12112657627036       -1.86761771074234
C            1.56024255320660       -1.32910227907462        3.32230080804298
C            0.90997912775197       -1.73130949387440        2.27365406856659
H            1.06418245938745       -0.79663339494818        4.11744864807495
H            2.60834484455741       -1.54514550294058        3.46398177317911
C            0.29525219408749       -2.04194330788407        1.18036603760480
H           -0.19592087328336       -2.99694092039191        1.08695550352989
Cl          -0.35341640110367        0.45790588307466       -1.97426975301964
Cl           0.60406428216801       -2.41250562816171       -1.74418901054799
O           -0.14512293892715        0.38008193107653        0.88428290777290
O            1.97723407307867       -0.34822659141266       -0.40310380810365
C            0.86420458253923        2.29842274193463        0.11855412791875
C            2.15586500788878        1.80753295146596        0.53949114816409
C            3.76524285559782        0.09256401185618        1.00375587310894
C           -1.50762332352284        2.15828591665581        0.30734698995942
C           -1.66376578957806        3.27748486519697       -0.54636638904496
C            0.73647523824522        3.50488994297167       -0.58942166963949
C           -0.49114511778938        3.94246007489683       -0.99156408042016
C            2.96208405155467        2.74334926061289        1.20944923197597
C            4.05618367960286        2.34633172707943        1.91249520068813
C            4.44923515077270        0.98273706545822        1.88014757114187
H            1.63521504676022        4.01113781786004       -0.90342160541415
H           -0.58915602075926        4.79501441841586       -1.64373062769620
H            2.62431888573588        3.76665215817152        1.24268593834214
H            4.62334773242833        3.04157873691883        2.50898378670815
C            5.51215077494288        0.53363075377282        2.66785196301090
C            4.33358186947189       -1.18720038762872        0.81302980992806
N           -0.25987883324682        1.65266558265165        0.50251558434361
N            2.60339564156024        0.52216158685668        0.40925276715373
C           -2.63973232025021        1.59774019325262        0.92947019591001
C           -2.95387300581794        3.68198545553266       -0.90709192054798
C           -3.90121913936680        2.02579978440933        0.54431995073796
C           -4.05747426134088        3.02703018450338       -0.40733394140274
H           -3.06742398538305        4.51345372772007       -1.58522481877894
C           -2.53609485589047        0.69966426295943        2.13860827931698
H           -4.77178716730873        1.59304714636730        1.01314583530377
H           -5.04968966296492        3.32024560985692       -0.71152747438211
C            5.93800401224370       -0.77296826436851        2.58932789466444
C            5.37466756947999       -1.60550084867812        1.63705086427938
C            3.96154715023311       -2.16242433043286       -0.28193467336484
H            5.98811618915610        1.23256843910731        3.33788845473861
H            6.73064465493071       -1.13705371515178        3.22244635372555
H            5.76622375684363       -2.60263730935193        1.51600638367649
F            3.79612564826338       -1.59336264207897       -1.47702942082759
F            2.90110555851879       -2.91760738430134        0.00813004340668
F            4.96836097187770       -3.04883418968364       -0.47768079652821
F           -3.63723022356205        0.85884421515570        2.91535794215063
F           -1.51112626223920        1.04051329126965        2.93653715537899
F           -2.46570649880030       -0.61210792216080        1.92132777006181
