63
 energy: -131.237645876085 gnorm: 0.000817712584 xtb: 6.5.1 (b24c23e)
Si          -0.03816037117241       -0.49583883375308        0.07456985144118
O           -0.72978768814930       -1.93480084852493       -0.09704366353570
C           -1.62679409821262       -2.50667067097423       -1.02615802040315
C           -3.01046462225274       -2.52462709733336       -0.42950729829627
H           -1.63409756017065       -1.91447442090597       -1.94674287145737
C           -3.19781134039728       -2.94388872821317        0.88080772769342
C           -4.10340317946866       -2.10785943786818       -1.17577055281406
C           -4.46340419945097       -2.94239011994239        1.43783122818842
H           -2.34203336430038       -3.24473209045221        1.46528983319554
C           -5.36999329101380       -2.11196761665337       -0.61858105652748
H           -3.95755893671911       -1.76957973283846       -2.19176366175573
C           -5.55199772713966       -2.52792628174211        0.68911479300034
H           -4.60079824993668       -3.26011993596651        2.46112606163314
H           -6.21565513538497       -1.78096278805387       -1.20426630705949
H           -6.54004969375347       -2.52139257865257        1.12616942559798
C           -1.14125281534755       -3.93365568184813       -1.34536553030645
C           -0.09998083881705       -3.92087914245343       -2.34988648764031
H           -1.98831290443710       -4.52406048320608       -1.70600846836955
H           -0.75941421134866       -4.38043718242967       -0.42510519213190
C            0.73294976567298       -3.87676649392926       -3.20771829052408
H            1.48549462908828       -3.83925321228906       -3.93690497974689
Cl          -0.80375457367587        0.33124152622025       -1.81775113016968
Cl           0.71752184272219       -1.18304543021766        1.95186003487825
O           -0.48274542466130        0.95830373000504        0.92148402060930
O            1.52307105452685        0.00803525609671       -0.48711876505903
C            0.93909249372584        2.62287710092146        0.17846171678459
C            2.08304792995238        1.91138447810882        0.70604779573214
C            3.41230627517620       -0.07586685112352        0.89266717627851
C           -1.42326040828921        2.78922201199693       -0.19045446799116
C           -1.21445126462432        3.93181901722436       -1.00837533188699
C            1.13297168731734        3.85627249795636       -0.46127040860182
C            0.09608720746071        4.47073814371100       -1.09874161783024
C            2.95773782364119        2.58959385562083        1.56762094992657
C            3.95227558318223        1.91340438603564        2.20816934272520
C            4.18564167921612        0.54486040866481        1.91167740027974
H            2.13729779073614        4.24309696644059       -0.52745772636922
H            0.25425701586012        5.36046255515780       -1.68618940152579
H            2.75473393597444        3.62565810262112        1.78649262426631
H            4.56538768236856        2.39803070915898        2.95034772504938
C            5.17296836805168       -0.18411680573200        2.58258197783602
C            3.78510997813964       -1.36689223939682        0.46432982069510
N           -0.32787778572539        2.15331913563932        0.31495908269989
N            2.35933179372627        0.62189246888136        0.37520758579204
C           -2.74701292746600        2.37473955953174        0.06251298236076
C           -2.29475027479497        4.50715064576989       -1.68570964929382
C           -3.78859194466456        2.96076879586227       -0.64271927666183
C           -3.56307181829932        3.99291228406677       -1.54324076559877
H           -2.11139624475522        5.35700769321657       -2.32461044729675
C           -3.12512457208127        1.40399263440861        1.15583570318376
H           -4.79591477468749        2.61553019845093       -0.47245833450309
H           -4.39059646075541        4.41152243508637       -2.09273942125578
C            5.42463854415000       -1.49351342367287        2.24541774785183
C            4.75852056421972       -2.06210706347368        1.16899492525640
C            3.25986341356304       -2.03797621064119       -0.78464743329454
H            5.72876952445316        0.30160842416421        3.36947184484395
H            6.16122174712803       -2.06891572512132        2.78221132839823
H            5.01394778832433       -3.06320607091397        0.86026041338248
F            3.21418353414311       -1.21289818495386       -1.84149245149011
F            2.07259605425317       -2.62478224734556       -0.65208623466277
F            4.09634348946543       -3.02656689966088       -1.17375789647544
F           -4.43314376962482        1.52962935964658        1.46628598210836
F           -2.47922541716695        1.65820550971609        2.30490836076074
F           -2.96379830750421        0.11239263989562        0.86638967808499
