63
 energy: -131.230593651478 gnorm: 0.000725875500 xtb: 6.5.1 (b24c23e)
Si           0.00692003983182        0.75698065356945       -0.43907699956952
O           -1.32187762352534        0.48831724216286        0.48131262277354
C           -2.13161263998937        1.23342181426785        1.37580482638787
C           -2.79957671922233        2.39018283528837        0.66702364979294
H           -2.91718176228814        0.51112521971230        1.65910286053319
C           -2.54942760411111        3.72342255620053        0.95796018386018
C           -3.69377433121942        2.07986119891327       -0.35147580917818
C           -3.17818329855046        4.72256218296152        0.23438704328837
H           -1.85192340634073        3.99791642372541        1.73143179908721
C           -4.31499282816234        3.07743335445171       -1.07832159753517
H           -3.89250459126884        1.04279363762909       -0.57837773538933
C           -4.05711140533909        4.40565293889300       -0.78575175676867
H           -2.96908626085833        5.75639171121052        0.46550467173570
H           -4.99777543132425        2.81695346807919       -1.87347629214716
H           -4.53728844056234        5.18928609907990       -1.35304222563402
C           -1.35633171666074        1.61424995439756        2.64362237149318
C           -0.91017087420446        0.43346785431161        3.34794560526026
H           -2.01218394720679        2.19596970078828        3.29575407577483
H           -0.48533770246210        2.21148087746917        2.36858001837151
C           -0.55739183423320       -0.56049139076948        3.91379380964976
H           -0.21615496402256       -1.40147971592227        4.43856805892635
Cl           0.35753567077742        1.01228517643452       -2.44418600287824
Cl           0.29864977727321        2.77335867330020        0.07943485328243
O            1.47605512038479        0.32623893761451        0.37545731290805
O           -0.21810088297279       -1.03943931455505       -0.93418972486665
C            1.85689669942850       -1.99870717573474        0.42249794905001
C            0.50909188619936       -2.30426867877597        0.82790705589205
C           -1.81739193063291       -2.17473888258682        0.33805006171535
C            3.53578986848132       -0.49508281285358       -0.37753539725442
C            4.30051475416463       -1.60766705217650       -0.83397871055489
C            2.73125832375685       -3.08137755850819        0.23545594758691
C            3.89413195089547       -2.91410105461014       -0.45175718179103
C            0.24731139962798       -3.12424653618390        1.93666345051463
C           -1.03623450555251       -3.32144339243075        2.34639716521942
C           -2.11325286147334       -2.81903599536561        1.56829958385601
H            2.39442282321768       -4.06126104594630        0.53313867136460
H            4.51436233826610       -3.75409565556979       -0.71727505300156
H            1.08435250952366       -3.49744330015359        2.50497767836058
H           -1.25868288369903       -3.85852784251725        3.25436776186231
C           -3.44555022345822       -2.96509102520161        1.96922760038270
C           -2.88043746214098       -1.88561627123280       -0.54348113740339
N            2.28191071186369       -0.73783716072891        0.12754254752970
N           -0.51923686586194       -1.86734781494556        0.06565641270984
C            4.12747147835245        0.77856617838138       -0.48661788599183
C            5.45348096755524       -1.40707519550354       -1.59692087211849
C            5.26019615831493        0.94224393217395       -1.28122705627402
C            5.89022952499449       -0.13230827222818       -1.88476172845840
H            5.99160246366962       -2.27083697943101       -1.95490324111950
C            3.75303890346328        2.02217043494488        0.28717752476420
H            5.66644883529321        1.93443827624175       -1.40047952671952
H            6.74862356449194        0.02941964877346       -2.51575539957965
C           -4.47152794696273       -2.52411943235356        1.16418203174010
C           -4.18726052058644       -2.03408650745472       -0.10444560930423
C           -2.67746709004961       -1.55158721354844       -2.00204963443572
H           -3.65245843788089       -3.42797139986147        2.92160135705332
H           -5.49669344324257       -2.60252655374171        1.48819586979825
H           -4.99855749005890       -1.78526657872344       -0.77075521475889
F           -1.70310330970021       -2.27925741648563       -2.56365687548096
F           -2.45916619030828       -0.26628212689688       -2.27482723717470
F           -3.78959175046430       -1.87092919483417       -2.70556308314915
F            3.09653527994411        2.92170173711897       -0.44105339307048
F            4.89613785081630        2.64998689845170        0.67366588869685
F            3.10235827603406        1.81176393127382        1.43059406037862
