63
 energy: -131.244451492821 gnorm: 0.000756288378 xtb: 6.5.1 (b24c23e)
Si           1.02673944404330        1.29538075878743       -0.71116658497464
O           -0.43151370218915        1.40624569203280       -0.04947103272461
C           -1.34471187000394        2.50079609686845        0.04402347726120
C           -2.65554044451808        2.06018927339766       -0.56810277397442
H           -0.93706672823553        3.33463117980399       -0.54435484790031
C           -3.84316448767560        1.96956452871716        0.14367437863223
C           -2.65063793446268        1.70990270241322       -1.91507274962738
C           -5.00183385910721        1.54012593302263       -0.48322136216269
H           -3.88474771110986        2.23292063992447        1.18871744846682
C           -3.80462370591971        1.27372444681167       -2.53667918031315
H           -1.72926129707835        1.77631900815271       -2.47496811398938
C           -4.98691766941753        1.18825893571515       -1.82050500307125
H           -5.91988273691637        1.47951724829891        0.08242341693738
H           -3.77966455562747        0.99611269869117       -3.57879163205652
H           -5.88968013697332        0.84388316818479       -2.30096657881871
C           -1.42561048778522        2.93432511857872        1.51201035673839
C           -0.10512688502552        3.25855502656342        2.01307549138078
H           -2.07554590455895        3.80924944597372        1.58765811768554
H           -1.83678206180565        2.11869663712408        2.11015130580759
C            1.00542354260666        3.48446142318677        2.39547892652548
H            1.97257724477995        3.69902505131620        2.73956939975304
Cl           0.94290597536102        0.17995905316756       -2.38383501406641
Cl           1.85069540135118        3.08497203897980       -1.00352545667916
O            1.99774969590715        0.51891286003436        0.37374134879048
O           -1.35672385903407       -2.44036217339304       -0.44919945052490
C            1.19191108192009       -1.71484989770648        0.23334157061476
C            0.03165019555464       -1.33894015101579        0.98794877260621
C           -2.33734353476698       -1.24288986328278        1.22069300617544
C            3.52574016539080       -1.18901265063662       -0.13628595981663
C            3.66246478674688       -2.33930073285438       -0.95188496025887
C            1.32925812015185       -2.85507207476144       -0.55970078917632
C            2.51661630383130       -3.14480257999108       -1.17987012020511
C            0.17963555236505       -0.60508000947270        2.18417068467879
C           -0.89989452019030       -0.24282242544430        2.92121449977232
C           -2.20014064617205       -0.53765493228725        2.44337302995626
H            0.47049184029179       -3.49416367529039       -0.68081938911746
H            2.60399247452385       -4.00611767611372       -1.82105599005127
H            1.17689035057089       -0.37227183152166        2.52012945656891
H           -0.78517113415132        0.27497965695465        3.85988587589851
C           -3.34347504497282       -0.14644309166280        3.15624975371049
C           -3.64198739440660       -1.48196981825486        0.71875080442160
N            2.27797005472873       -0.85879815864656        0.34307075829478
N           -1.21584368627167       -1.69798839215313        0.56050059040676
C            4.65860882429352       -0.42764447098779        0.17350764845502
C            4.91538991024030       -2.63187803639295       -1.50626010052678
C            5.88731903518581       -0.74166347564794       -0.40279831971637
C            6.00583113753545       -1.82748979650183       -1.25501397197215
H            5.00648420373548       -3.49691665489894       -2.14462321695387
C            4.62220031785239        0.69407691585317        1.17444985997005
H            6.74959114113853       -0.13794466479351       -0.16959392164628
H            6.96087158616620       -2.04983221315518       -1.70372457624048
C           -4.59588754177216       -0.43025775536144        2.67969344392802
C           -4.73832441653319       -1.08367563789741        1.45637614107421
C           -3.92506071051363       -2.13702355020317       -0.61736698017891
H           -3.21185116528151        0.37951601816303        4.09048491044945
H           -5.47558540450843       -0.14195937903582        3.23290339814403
H           -5.73022702832874       -1.27526484325775        1.08084525495209
F           -3.31855510651974       -1.55764729394264       -1.65563573556862
F           -5.24627231078578       -2.04326113790721       -0.91580649702616
F           -3.67586265974954       -3.45095822446119       -0.64207299854252
F            4.27110755438043        1.88560069406307        0.66359843658535
F            5.83431435829024        0.89165965589052        1.72733460951236
F            3.80027604343025        0.45554436226571        2.21035513372232
