63
 energy: -131.230929237802 gnorm: 0.000701528670 xtb: 6.5.1 (b24c23e)
Si          -0.07846989979340        1.00038110205221       -0.07341160118989
O           -1.32766116726314        0.34588861586748        0.74521055457801
C           -2.44243410307159        0.69360634320194        1.54393078843090
C           -3.38013560208099        1.61987318034431        0.81038085376920
H           -2.95733018041322       -0.27132393073028        1.68855531389085
C           -3.03287398569718        2.93240941129616        0.51901162025845
C           -4.60899504771941        1.13467763842518        0.37947292101835
C           -3.89587121526632        3.73506486760313       -0.20651728033284
H           -2.08374626655650        3.32566109279348        0.84488333254323
C           -5.47286463012681        1.94040939589090       -0.33960802126389
H           -4.88996259128961        0.11548882552171        0.61004921338458
C           -5.11455783191629        3.24309202268098       -0.63944720569482
H           -3.60966358157454        4.75036712770213       -0.43497989723479
H           -6.42285658607371        1.54782160078374       -0.67238253078918
H           -5.78302761685642        3.87037033203613       -1.21041146531772
C           -2.02947299730085        1.20694862947620        2.93276161971633
C           -1.28079438467807        0.17568527162915        3.61690993229824
H           -2.93386922254985        1.45052348530666        3.49563292854537
H           -1.41039761432942        2.09897690947166        2.83369378443240
C           -0.66997377389369       -0.73234958297864        4.10190046900898
H           -0.11900503199332       -1.48613743872012        4.57971181429601
Cl          -0.21816529259083        1.94883765861145       -1.85505227793872
Cl           0.30645192182406        2.63540185438040        1.18882026647029
O            1.54017871384964        0.51894938876794        0.30065385965648
O           -0.20210878633775       -0.65973924811788       -1.08892199347944
C            1.97169432592374       -1.77387021019527       -0.01286782958568
C            0.65247936193884       -2.18791747751714        0.37869260531772
C           -1.68004611002899       -2.17217473841582       -0.09528302067393
C            3.51754785888501       -0.12389351908493       -0.80387189130523
C            4.31779200367870       -1.16672456196863       -1.35662318349036
C            2.89060070731706       -2.79307204436686       -0.31240259394232
C            4.01510468429218       -2.51483594246708       -1.02391140549746
C            0.46332514408676       -3.15961047081961        1.37598935676389
C           -0.79433197689310       -3.52512970770588        1.74011955438805
C           -1.90885871014705       -3.04309700761676        1.00402911360444
H            2.61719990303996       -3.80828517969388       -0.07432103082312
H            4.67675908827237       -3.29689322173888       -1.35753914786638
H            1.33018334640350       -3.52489188073655        1.90286416690712
H           -0.96726575171608       -4.18671011384912        2.57329528070447
C           -3.21471755264707       -3.42302352110536        1.33310265066838
C           -2.77316916607375       -1.84070519213279       -0.92426577779710
N            2.32575911726513       -0.47029567138095       -0.21459822487994
N           -0.41513366738017       -1.69975107623205       -0.29594833350964
C            4.02245196046560        1.18955875633613       -0.91119508337903
C            5.41322812810721       -0.86901147020899       -2.17023163129003
C            5.09911543048439        1.44977953485395       -1.75460486245906
C            5.76359092644326        0.43818464561516       -2.42573959697791
H            5.97783240081672       -1.68591694541405       -2.59189329465249
C            3.56632752080597        2.36626939628393       -0.08098323944534
H            5.43657814852359        2.46781650226628       -1.86502278404305
H            6.57940054442220        0.67427740570771       -3.08892994697773
C           -4.28148582934375       -2.99571872221763        0.57698101579428
C           -4.05149534885029       -2.23991411550079       -0.56579273313227
C           -2.63654702224313       -1.13409085827367       -2.25119979978509
H           -3.36632848747137       -4.06047678382745        2.19037894047189
H           -5.28955444735071       -3.27092729520600        0.84258628002997
H           -4.88174200007589       -1.96985611581865       -1.19918880784168
F           -1.58936086421333       -1.55727045879753       -2.97051880477207
F           -2.59457687229270        0.19407846668828       -2.16559575359768
F           -3.70939909848000       -1.40071787860074       -3.03307256104021
F            2.52940440848557        3.02534636597093       -0.59398540993198
F            4.55584799804587        3.28551654176897        0.00690172142961
F            3.31041367118917        2.03684601210762        1.18878406356405
