63
 energy: -131.233465905079 gnorm: 0.000644760248 xtb: 6.5.1 (b24c23e)
Si          -0.43339170566149       -0.24509088348718        1.08579398821435
O            0.67712525860424        0.90340243022319        0.65438157295902
C            1.36369755709006        1.93431326921177        1.31675903892554
C            2.64017921417397        2.19635684808524        0.55418031835935
H            1.58951520587038        1.61880053191741        2.34286688553658
C            2.58510655186966        2.43579195373700       -0.81370211791729
C            3.86891650551516        2.22846741483453        1.19754834787359
C            3.73661957080726        2.72525624407684       -1.52170201309965
H            1.63066963633404        2.39523403394224       -1.31738463029494
C            5.02232654935401        2.51605786008393        0.48779268161099
H            3.91807677497598        2.03337720680049        2.25867963700719
C            4.95788622526658        2.77236858410963       -0.87085015146512
H            3.68057650973997        2.92366884664165       -2.58242613206011
H            5.97359146097573        2.54537960915332        0.99849974601283
H            5.85638635664021        3.00889642131159       -1.42174763048628
C            0.51780671146816        3.22756057773482        1.34995628149268
C           -0.42296339526499        3.24077783469355        2.44803055780718
H            1.19005519552793        4.08602221166748        1.44116287151357
H           -0.02764889674634        3.30118452324949        0.40587658935011
C           -1.18353980398387        3.25798527366145        3.37084108412776
H           -1.85654884736062        3.24419581327879        4.17433760547754
Cl          -0.28599941392180       -0.00996992526274        3.12063846262440
Cl          -1.98858810516549       -1.82600306842014        1.43825869467988
O           -1.45575903362243        0.40085700680546       -0.19178221624884
O            0.35190969227181       -1.47891549038197        0.13291826831019
C           -1.47139427707968       -1.14152539957652       -1.90168401878953
C           -0.04503653697979       -0.98410908635903       -2.08770016813757
C            2.19642008600439       -0.97191779011484       -1.23358234340737
C           -3.50707193959504       -0.53484766537625       -0.79764696909080
C           -4.19785477759507       -1.54719877118324       -1.51679999622628
C           -2.17487733201376       -2.02494755609478       -2.73537772108611
C           -3.49498657479569       -2.27603568498569       -2.51109039361942
C            0.43168032255574       -0.71069734258058       -3.37759604093717
C            1.74968418576704       -0.43113704936256       -3.58035461107438
C            2.66857000247434       -0.52877660139115       -2.50214335145281
H           -1.62147272010565       -2.57117149691426       -3.48236537534534
H           -4.02097398896728       -3.02950849984028       -3.07464570773677
H           -0.28447095314524       -0.63769925289110       -4.18044198968310
H            2.11404376244298       -0.13254728847035       -4.54970571977193
C            4.02138962192785       -0.23089325156430       -2.68658763307818
C            3.15399364453898       -1.24323800137388       -0.23311039456271
N           -2.15984672019170       -0.42251440491888       -0.98130286773784
N            0.84984011762662       -1.12662608967220       -1.06956826513572
C           -4.25053463925418        0.31107215762755        0.05192368231219
C           -5.54905240094868       -1.79434071989323       -1.25012504579084
C           -5.58500630723176        0.02364260525429        0.29838200349168
C           -6.22539732640794       -1.04313386079375       -0.31837430275969
H           -6.04564833910300       -2.58705653841461       -1.78779165749014
C           -3.71182896485865        1.58189189523653        0.66794945291573
H           -6.14133928681179        0.65304016708867        0.97453468157468
H           -7.25760716223715       -1.25089892869922       -0.08759745401404
C            4.91782725461297       -0.37376655046138       -1.65246359826051
C            4.48495742553334       -0.90348828800838       -0.44814317097223
C            2.86620743430278       -1.98098101454213        1.05355233522788
H            4.34689611838559        0.11291020249492       -3.65593464464764
H            5.95587029516726       -0.11579896152134       -1.78175905080200
H            5.20306522681639       -1.07958976036873        0.33625655655748
F            2.10619553835883       -3.06813980519735        0.88172863539672
F            2.32927275414563       -1.22833348024866        2.01658427091938
F            4.01243247010348       -2.45616544101635        1.59057187175452
F           -2.97560757804441        1.40844293629250        1.76331773265228
F           -4.72712414552019        2.38696136343715        1.05075806582142
F           -3.01042806463133        2.33045112673936       -0.20035353732924
