63
 energy: -131.151707658890 gnorm: 0.000261547078 xtb: 6.5.1 (b24c23e)
Si           0.30331415793381       -0.87431086350840       -0.32011154253177
O           -1.99910574017119       -1.23785313829632       -0.49654917785870
C           -2.45147765925962       -2.27307029142517       -0.93887384454845
C           -3.86594506763373       -2.49234474652313       -1.21325394334811
H           -1.78651198540359       -3.11632094036891       -1.17299092444116
C           -4.79403106024659       -1.46968020579553       -1.00182218146415
C           -4.29959520942282       -3.73277576641065       -1.68428313534967
C           -6.13352211975013       -1.68908878021871       -1.25181937488830
H           -4.43622477413481       -0.51438460602713       -0.64799596283536
C           -5.64183432294050       -3.94525909980420       -1.93208718733600
H           -3.57744714558049       -4.51772899134002       -1.85218387417290
C           -6.55794552438829       -2.92656795890152       -1.71420502548729
H           -6.85244292400198       -0.90006448804816       -1.08842284352952
H           -5.97929681834545       -4.90421219568138       -2.29566099257094
H           -7.60667915512104       -3.09744953211906       -1.90741988812317
C            1.58502964425575       -1.32294139620103        3.33152408765282
C            0.92411815523985       -1.72858150161473        2.29089294231958
H            2.63316304091287       -1.54356259838387        3.46578890119296
H            1.09845964366181       -0.78284226751337        4.12738031293135
C            0.29991919177606       -2.04208639636965        1.20384231203851
H           -0.19745907720507       -2.99467575543466        1.11948793457658
Cl          -0.35879810048514        0.44055498561387       -1.96399218942735
Cl           0.59908252135348       -2.42862845521757       -1.71936432204719
O           -0.14077038406485        0.37760777826569        0.89488623224611
O            1.97682823186393       -0.35645382655102       -0.39547299912641
C            0.85950355464623        2.29336421513704        0.11083963011196
C            2.15486410422951        1.80849393433399        0.52717534088258
C            3.77059158340026        0.10112803229776        0.99760958779692
C           -1.51111808829260        2.14843440506317        0.31435080398696
C           -1.67511205176381        3.26151231266000       -0.54585590311611
C            0.72437605821970        3.49450523967469       -0.60491771786665
C           -0.50674865035048        3.92634776782425       -1.00242175254020
C            2.96365473953922        2.75201094593606        1.18345310921207
C            4.06272159300154        2.36367315562421        1.88347807756513
C            4.45794762525921        1.00048168246969        1.86183954359870
H            1.61983914943584        4.00055050956792       -0.92845696993424
H           -0.61078060206451        4.77406904691337       -1.65995280390443
H            2.62428003871772        3.77498771266273        1.20917229091449
H            4.63232358151121        3.06560015154032        2.46976109780328
C            5.52602393629747        0.56048464096417        2.64769106747268
C            4.34016272644535       -1.17939582717218        0.81532144702975
N           -0.26083615422391        1.64791465458656        0.50634449837464
N            2.60453980421677        0.52295185537008        0.40570326699331
C           -2.63828853178310        1.58821845775087        0.94564602562392
C           -2.96828306296669        3.65994827704030       -0.90226394573863
C           -3.90308243096356        2.00997554849885        0.56433641949022
C           -4.06730809472273        3.00493427301073       -0.39253644567648
H           -3.08790750654012        4.48664377642843       -1.58517404946293
C           -2.52618420058162        0.69669044333220        2.15884377870780
H           -4.76982282017135        1.57710756601507        1.04011138835298
H           -5.06198035621671        3.29328765099599       -0.69334498205695
C            5.95383450109790       -0.74597244676116        2.57863883911473
C            5.38681199131209       -1.58814761330350        1.63698752296468
C            3.96383173759688       -2.16465365711340       -0.26922133284215
H            6.00451853005650        1.26638525235981        3.30860108694219
H            6.75075021639081       -1.10285035690728        3.21049053630122
H            5.77956185690170       -2.58564723775603        1.52295761530865
F            2.90444385195458       -2.91725230775414        0.03089452098105
F            4.96977562753343       -3.05285365264356       -0.46097077934044
F            3.79414176157967       -1.60565122415268       -1.46864098956214
F           -3.62373582363970        0.85697867487638        2.94038802141946
F           -1.49807385885235        1.04383046561039        2.94989230576403
F           -2.45380785504568       -0.61601528710203        1.94738753543575
