63
 energy: -131.226796362061 gnorm: 0.000793941475 xtb: 6.5.1 (b24c23e)
Si          -0.06040573804432       -0.62396865483166       -0.54486629927110
O           -1.39777034794667       -1.52268397229023       -0.32343368785571
C           -2.18989025846338       -1.90288821834966        0.77300413218467
C           -3.45224059903874       -2.54559894925707        0.25494337337647
H           -2.43865243930304       -1.01236636960952        1.35765067589322
C           -3.41220238457168       -3.35819437734642       -0.86926125353915
C           -4.65978396999644       -2.34548016994401        0.90982876822499
C           -4.56660497522966       -3.96272062813911       -1.33304593892390
H           -2.47385408940025       -3.49314228240950       -1.38431416343241
C           -5.81312719241742       -2.95387372184429        0.44722724355399
H           -4.69604711114958       -1.70540312635267        1.78041205405120
C           -5.76836205006103       -3.76444005045915       -0.67447150282745
H           -4.52877411059870       -4.58961037799608       -2.21196600986640
H           -6.75021646317434       -2.78979351809869        0.95954396889706
H           -6.67016330795058       -4.23573865778566       -1.03743813001639
C           -1.45030598828824       -2.88282056280987        1.71200086561472
C           -0.49431929098300       -2.18687393187292        2.54281214355941
H           -2.18869922746796       -3.37779083237579        2.34855317676714
H           -0.93944723225824       -3.63675285758391        1.10935496818138
C            0.27482338975882       -1.56376041613079        3.21578840378068
H            0.96364184573964       -1.05230402340698        3.81881438451698
Cl          -0.35634446257046       -0.10907013292694       -2.46433837022578
Cl           1.24541219836462       -2.22155456036550       -0.08091834853799
O           -0.63913078268218        0.63586282999334        0.52143014174010
O            1.58519217274601        0.44681083203571       -0.63871820779196
C            0.95031580183613        2.18303683710578        1.28717104512310
C            1.96032754420113        1.18318905931319        1.50130829745219
C            3.44471970656314       -0.38318129410371        0.49490596898250
C           -1.03351859875652        2.93052211445618        0.17752341940261
C           -0.53905016481313        4.26562951121586        0.23241444745960
C            1.28066483595469        3.50878230994589        1.61088209130773
C            0.59408480948382        4.53931542698221        1.04669253542027
C            2.64118914766640        1.06168582091980        2.72444833245999
C            3.60247553017776        0.11031835273285        2.87942842867391
C            4.03956506291540       -0.64179450208496        1.75705096196256
H            2.16765882861780        3.68240199349718        2.19852605232176
H            0.90474249823682        5.56161458003371        1.18396374904520
H            2.31585961806614        1.67479588581857        3.55027680473480
H            4.06036071152686       -0.07099093099402        3.83889376613826
C            5.05531801388519       -1.59973043730112        1.85821557324743
C            4.02944185801008       -0.95102437661565       -0.65765704985250
N           -0.22569362509370        1.92522268595579        0.64214129080866
N            2.34429447614420        0.42144580509810        0.44793031525289
C           -2.32635855113993        2.74748237320419       -0.35698295293331
C           -1.19198059245952        5.28766408017666       -0.45985727452137
C           -2.93169713378112        3.78142686172749       -1.06618406578112
C           -2.34310764706624        5.02949557221630       -1.17342545128743
H           -0.77569952049806        6.28226680089333       -0.42337390974570
C           -3.20779778471153        1.56456330831949       -0.05205411344422
H           -3.89646943460745        3.60679396398666       -1.51490724223833
H           -2.82055672852329        5.80381101038104       -1.75102280341733
C            5.50971763914393       -2.25657330061288        0.73962349658879
C            5.02953846970125       -1.89611327992062       -0.51525293631936
C            3.71260764990492       -0.48054266777910       -2.05831143785015
H            5.47497946900632       -1.80850790304195        2.83025324917632
H            6.27021737109243       -3.01625686594084        0.82004886136906
H            5.45761129704751       -2.34605249943367       -1.39688024045140
F            2.65352784771632       -1.04173188601455       -2.63324022852263
F            4.74984011676816       -0.75833926128980       -2.88218652313819
F            3.57923029573073        0.85395212991897       -2.12887184993716
F           -4.51002546909989        1.92569528741962       -0.11497266350823
F           -3.04864936898531        1.14176295555295        1.21490841183386
F           -3.10205056487400        0.52098520841757       -0.86779074386485
