75
 energy: -118.557745246660 gnorm: 0.000543404870 xtb: 6.5.1 (b24c23e)
Si          -0.08104061833655       -0.89399252640071        0.71769352722225
O            1.16526581668533       -0.11908300814764        1.43839462475451
C            2.09072314060599       -0.63187295818583        2.37189971464343
C            2.92489326973261       -1.72017511368593        1.74719249147605
H            1.53883625173448       -1.03854857982999        3.22752508770464
C            3.51099766038468       -1.51095850568336        0.50602796649913
C            3.09030495387400       -2.94131842472012        2.38330045892105
C            4.25163698426995       -2.51272795732534       -0.09305519637000
H            3.36457498225631       -0.56597260730984        0.00345100991196
C            3.83757466772246       -3.94059474811392        1.78512962580823
H            2.61697651507900       -3.11339023233384        3.33830348436769
C            4.41831764514855       -3.72878685893767        0.54680822814555
H            4.69633103665603       -2.34824410250859       -1.06365805769834
H            3.95640559145794       -4.89130873299636        2.28324585212695
H            4.99277780281982       -4.51318019650042        0.07635548358702
C            2.98408594996486        0.52987988330672        2.84018820099643
C            2.22432186877833        1.50280649462782        3.59261627109116
H            3.78075525806134        0.12220404810379        3.46790377674468
H            3.43262422179042        1.00964212425960        1.96600638535066
C            1.56265269459870        2.28616184250583        4.20934791321608
H            0.99823512120685        2.97342706318185        4.76504607682932
Cl           0.37739521326875       -2.22524613061377       -0.78179597249821
Cl          -0.41478193854080       -2.38169979765659        2.21888580082972
O           -1.67134236720269       -0.44182710456456        1.07727180355900
O           -0.08995828464998        0.43486003225844       -0.57695150178538
C           -1.98168979079894        1.89029511067500        0.75351495533274
C           -0.61472932296955        2.29193876522497        0.67464199380476
C            1.55630378262571        2.08143546888028       -0.35561945693373
C           -3.73566382488524        0.29820949862828        0.26401116669697
C           -4.71903175526279        1.26225059538353        0.60197465667244
C           -2.97031957269832        2.86308606039125        1.02772046920813
C           -4.29247301610290        2.55123658203242        1.02636264328814
C           -0.14902287699348        3.40071151277080        1.42163382287451
C            1.14987217333282        3.77643127532594        1.36252030393326
C            2.03916640695525        3.13976239378170        0.45746200198393
H           -2.65752619008458        3.87708888953113        1.21271455361254
H           -5.03720088158536        3.28888827262768        1.28097493951361
H           -0.82266410010394        3.87635985683963        2.11360635313625
H            1.53230644946809        4.56142837892023        1.99509663369213
N           -2.40735536125852        0.60134169456911        0.53270922228356
N            0.27384796416751        1.64491004402997       -0.12586579636532
C            2.40176442638675        1.53148494607922       -1.35650987932201
C            3.37698084385573        3.54054448654264        0.37673101236410
H            3.72269535678017        4.33167659763082        1.02407237747087
C            3.71739425891667        1.96304913851205       -1.38245849824022
C            4.22069185035302        2.92624723817053       -0.51289578648301
H            5.26095161330692        3.20789411717715       -0.57033599459187
C           -4.13001457875951       -0.91475410745382       -0.32668361470295
C           -6.07526973373325        0.94733109450755        0.48181136220714
H           -6.80898251022681        1.69070247749579        0.75426764676274
C           -6.45608591560724       -0.29191033251251        0.02313942008666
C           -5.48842284660727       -1.19136922737044       -0.40020240416943
H            4.39036330252730        1.55000439643861       -2.11426085795251
C           -3.15770875603095       -1.88275822692600       -0.95162308729208
C           -3.05500503840557       -3.16367420314402       -0.12328645756218
H           -2.30923319644231       -3.82320444049487       -0.55809867618721
H           -2.75368616963543       -2.93574507738995        0.89488019057165
H           -4.01138421775340       -3.68142797566709       -0.09538748447942
C           -3.55787778457580       -2.20669340732075       -2.39436052138630
H           -4.45858700220375       -2.81328307516206       -2.43789722653323
H           -3.72646297273356       -1.29336392612094       -2.96097927432012
H           -2.75173301791568       -2.76189321687998       -2.86622146892630
C            1.89386923426219        0.61886335440337       -2.45135024986883
C            2.98613327234028       -0.01277995037607       -3.31165977215553
H            3.50264701390961        0.72755927820711       -3.92023644917445
H            3.70751696531522       -0.54792240920735       -2.69946731496256
H            2.52330277660467       -0.73307741296797       -3.98188378135438
C            0.94436628957852        1.42846848212833       -3.34553649892659
H            0.58576966649966        0.80341758778009       -4.15894657528304
H            0.08210145129622        1.78036491048964       -2.78570259947386
H            1.46090351106001        2.28939901013089       -3.76832075920451
H           -2.17679382771642       -1.41492293215415       -1.00440752868061
H            1.32755709564948       -0.20087558928031       -2.01198052863427
H           -5.80318650682089       -2.13411044820847       -0.81796286032345
H           -7.50121037464138       -0.55295445943499       -0.04333737741871
