75
 energy: -118.558605930354 gnorm: 0.000565456570 xtb: 6.5.1 (b24c23e)
Si           0.23186072407062        0.97964965199583        0.90282426583473
O           -1.27545146455634        0.42349157520436        1.16732232186604
C           -2.14101057897796        0.41218054229442        2.28034959085631
C           -2.42101267100458       -1.04437892831395        2.57926750695026
H           -1.62394426820427        0.86504521626478        3.13739547167758
C           -3.65239007356243       -1.65181680722224        2.38221609592993
C           -1.34781805626581       -1.82165688954828        3.00455382152665
C           -3.80779802363194       -3.00866064065023        2.61617284589757
H           -4.50259551311243       -1.07772544720176        2.04828687015196
C           -1.50087661083854       -3.17679410252297        3.22682216455550
H           -0.38913585677213       -1.34877497907783        3.16070831476457
C           -2.73521937041583       -3.77527894801455        3.03404476302084
H           -4.77500545479684       -3.46761321067655        2.46830058560701
H           -0.65822563586291       -3.76611090161318        3.55815839271681
H           -2.86028254123630       -4.83345237200310        3.21226487872642
C           -3.37713600137970        1.25422101468829        1.94027035229380
C           -2.98187978314170        2.63251873182697        1.73392079851628
H           -4.09304617069987        1.19442833216809        2.76359348828685
H           -3.83521857430937        0.87437483097035        1.02197104124011
C           -2.59471794285767        3.74967393944627        1.55217923151013
H           -2.25898343451426        4.73046060344497        1.39433906460318
Cl           0.44312750695730        2.84494658519787        0.09953441946329
Cl           0.70236019305850        1.53660482177402        2.91481930496700
O            1.56340505996627       -0.06105763451756        1.07544276440205
O            0.06589756839183        0.33083280430347       -0.83045820570083
C            1.26965773990673       -2.03854642868100       -0.20180840488409
C           -0.13171333519314       -1.92723226991625       -0.45185455144013
C           -2.01125456742589       -0.65370077614263       -1.27069233686440
C            3.44924863164585       -1.02612531021769        0.07461027138281
C            4.06255446958039       -2.30155922911589       -0.02069624411344
C            1.89558849946414       -3.29580957800040       -0.36093325771532
C            3.23671049816441       -3.44478455711561       -0.20564726697323
C           -0.98347184737404       -3.03492157012571       -0.22421378640601
C           -2.31810951540944       -2.93180973898840       -0.42295555124285
C           -2.87280437409347       -1.73973522240539       -0.95843361593225
H            1.28800368058170       -4.14074142099509       -0.63885217815462
H            3.70072981583810       -4.41536958670379       -0.28513185880359
H           -0.56687358554815       -3.92810094010344        0.20882973069472
H           -2.98048254400999       -3.74329604583896       -0.16695707768171
N            2.06399635990717       -0.97650447389623        0.16032617532809
N           -0.68584381377505       -0.77732718641768       -0.92111868377495
C           -2.54995497104886        0.48842389974275       -1.91110237470517
C           -4.25244871383696       -1.62974439684185       -1.15554727132364
H           -4.88197656961568       -2.46504164258087       -0.88930266208559
C           -3.92536953570356        0.54503707961883       -2.07209268933811
C           -4.78151323977703       -0.47528846396509       -1.67655694166701
H           -5.84714414321186       -0.36832741391847       -1.81155440364223
C            4.25274708434371        0.12768156684647        0.07513774089988
C            5.45460204359447       -2.41335195656523        0.03199230032106
H            5.90086546248362       -3.39414914823545       -0.03163908869180
C            6.23153794598805       -1.28633995613582        0.16225575779613
C            5.62899500412174       -0.03690635833737        0.15332707606036
H           -4.35257867982256        1.41771070045423       -2.53926669898343
C            3.69842291702885        1.52062425372948       -0.08364791874136
C            3.81509389463529        2.30568894647958        1.22321787876635
H            3.35445910980816        3.28248009071179        1.10568585739875
H            3.30474314236490        1.78461165567286        2.02770096184983
H            4.85876210293991        2.43687825517902        1.50095365838737
C            4.40051421918739        2.26728999159091       -1.22206303427941
H            5.42430551180700        2.52662334531529       -0.96545280494315
H            4.41082086590176        1.66497099317255       -2.12840593029373
H            3.85821551134908        3.18717384246305       -1.42469338339126
C           -1.74310793730993        1.60132340911638       -2.54348873411620
C           -2.22533016556706        2.98441896436657       -2.10106670497798
H           -3.19001031195380        3.23603050731145       -2.53564480116619
H           -2.30563004864663        3.02866084047490       -1.01820890589408
H           -1.50440907771008        3.73383451379484       -2.41635464126252
C           -1.82100253337303        1.46009191553212       -4.06858277019679
H           -1.21981443155303        2.23575285008024       -4.53631825803805
H           -1.44012307357994        0.49078215634716       -4.38571227246606
H           -2.84535650337613        1.55746998242831       -4.42228912021014
H            2.64967892921534        1.45375122694879       -0.36453014969974
H           -0.69836133510411        1.51576942143828       -2.25798722805700
H            6.25368586669649        0.84103411106430        0.19036964573142
H            7.30539852035138       -1.36723663695278        0.23352139830035
