75
 energy: -118.549496310937 gnorm: 0.000827652849 xtb: 6.5.1 (b24c23e)
Si          -0.04924608000736        0.26680079475746        1.25362824445957
O            0.08294081019881       -1.31624210941662        0.92715808858158
C            0.56221871134822       -2.07666627895228       -0.15333986606397
C            1.83384773949130       -2.80331634173104        0.21918927447094
H            0.75352207569058       -1.42115320343948       -1.00986314048069
C            2.28020667974667       -2.84988195080622        1.53127727789259
C            2.56168072869335       -3.45483489153159       -0.77098823222056
C            3.44212781358518       -3.53298007249390        1.84843145757564
H            1.71383759389385       -2.34606193056587        2.29877460683904
C            3.71892643997113       -4.14124569476737       -0.45181971671416
H            2.21929983696300       -3.42211644136715       -1.79658291528145
C            4.16280493917406       -4.18065641017089        0.86039949478039
H            3.78314476365256       -3.55983158586514        2.87249336416991
H            4.27798562785273       -4.64308744206343       -1.22842940265844
H            5.06866197603522       -4.71383634663535        1.10839937614604
C           -0.53610131248675       -3.09486036146781       -0.53425451374278
C           -1.53848473681005       -2.49740234508508       -1.38713248072727
H           -0.08405217117028       -3.94383307397641       -1.05285452671558
H           -0.99642166140416       -3.45058977110507        0.39032284318990
C           -2.33441955122573       -1.97603988942885       -2.11336953616009
H           -3.05130883524681       -1.54551618846731       -2.74648735745770
Cl           1.44255400685188        1.48125638335003        2.13726028378352
Cl          -0.82907694176569       -0.17472160836257        3.16791623534721
O            0.60318811926891        0.73363930931538       -0.39108789534243
O           -1.57613624391520        0.95106117513550        0.87386439952281
C           -0.26394084531558        2.79597296255004       -0.84519868023536
C           -1.55229887233257        2.21000293495075       -1.09863477763199
C           -3.34399261350492        0.62636003809367       -0.68787127441049
C            2.11675064643112        2.56133160274281       -0.52996743492611
C            2.22857254988441        3.98034277379626       -0.53539193297358
C           -0.13459689310174        4.19554610690348       -0.93066975205904
C            1.07073667307782        4.78064441311102       -0.72117652820797
C           -2.25605258369230        2.74412326391663       -2.19423336597278
C           -3.44536255882299        2.21807633964223       -2.57515121726056
C           -4.00863294575881        1.13903236657436       -1.84228048473575
H           -1.02540453403524        4.78549469629638       -1.07208222750827
H            1.17243171484002        5.85390847458160       -0.69706883352124
H           -1.78978435294753        3.53170349923279       -2.76336856639021
H           -3.97214138099222        2.59264855988900       -3.43816301793007
N            0.84296301839073        2.04181092765734       -0.61835814351908
N           -2.12729463918166        1.21223630046876       -0.35842072398249
C           -3.97697230460875       -0.42089495378332        0.02679572189184
C           -5.23065997646670        0.61409149207441       -2.27185951249741
H           -5.68692696312749        1.02896970572578       -3.15793890442822
C           -5.20731916729557       -0.87836466383884       -0.43022676858693
C           -5.83637819050228       -0.39388426014359       -1.56449922461409
H           -6.78609449431876       -0.79929466875094       -1.87753599393279
C            3.30128289210914        1.78445394337627       -0.45684624226341
C            3.47150668693264        4.59935003981098       -0.36878655169724
H            3.51576510202126        5.67756671474223       -0.35834637422881
C            4.60253343591183        3.83887971428644       -0.22826431784380
H            5.56662257633427        4.30223271083888       -0.08686241068478
C            4.50250507349613        2.45496575078035       -0.29977886798861
H            5.41233683403737        1.88465612694464       -0.23233185966699
H           -5.69950229831818       -1.65714794265880        0.12601399932624
C            3.33202352745685        0.28350827884116       -0.64506445094397
C            3.10081444761862       -0.01964058334249       -2.13111423580619
H            3.16033525168210       -1.09145188171650       -2.30246271232579
H            2.12278676317769        0.32864584051366       -2.45477408435557
H            3.86041706379855        0.47202775717880       -2.73705902686182
C            4.62303498788505       -0.38658707156885       -0.17849233622147
H            5.46378513241038       -0.14259439061113       -0.82450694082316
H            4.85542758318981       -0.10326307547164        0.84489827574162
H            4.48659996930672       -1.46483104544745       -0.20538428906392
C           -3.47267140228540       -1.04867534908202        1.30280613116998
C           -3.85125949677485       -2.52318902941369        1.46435909797227
H           -4.88694015526485       -2.65230619858763        1.77105236017559
H           -3.68141776482136       -3.06978623135206        0.53878332427910
H           -3.22589380062635       -2.95251159636171        2.24345315942150
C           -4.01404826828139       -0.23459463425164        2.48295014784224
H           -3.65328864105369       -0.65738553317297        3.41528384671250
H           -3.66663001145632        0.79306148410128        2.42725416831106
H           -5.10322405610520       -0.24069615044481        2.47894630705416
H            2.52903364361590       -0.16501682662670       -0.06552877564330
H           -2.39165169081869       -1.01675945821573        1.32344793843335
