75
 energy: -118.546623711633 gnorm: 0.000418554710 xtb: 6.5.1 (b24c23e)
Si          -0.09488399452897        0.47670147117358        1.15920346423784
O            1.36212958448867        0.91681259461414        0.58863683020954
C            2.10065328607159        1.92335283980393       -0.06268066287910
C            1.65024100924889        2.03307459355629       -1.49986133020748
H            3.13298621530828        1.53836073061029       -0.04466462994646
C            0.33843593004530        2.36830303642827       -1.81170686925993
C            2.53749646578968        1.73833743587591       -2.52711649117007
C           -0.07910808525981        2.38957482310410       -3.13075508966837
H           -0.35975482986530        2.59820554501639       -1.02250406715780
C            2.11999259811572        1.76850276201191       -3.84581658827541
H            3.56040459473190        1.48008560400640       -2.29107548457162
C            0.80786350636982        2.08730394517169       -4.15016059787669
H           -1.10196275652315        2.64704459248099       -3.36338845886518
H            2.81989332118419        1.53831552057607       -4.63600499381648
H            0.47874533894791        2.10389240784475       -5.17902003401043
C            2.09435351452654        3.27739568585832        0.66532939481462
C            2.54367204221167        3.09721596563290        2.02908260300716
H            2.76717459010749        3.95395448031362        0.13123429272717
H            1.08958814285039        3.70103921386085        0.67103405712920
C            2.90847885001409        2.86623048099556        3.14481471640737
H            3.21338462118150        2.70337358846807        4.13490662034396
Cl          -0.47515342436640       -0.18265137007798        3.07438633499418
Cl          -0.85088895007616        2.44767259913121        1.57497917967111
O           -1.34887956006344        0.32496421530978       -0.00692023891506
O            0.42085871527168       -1.24763379416420        0.86893259052921
C           -1.28614226662992       -1.76622258637265       -1.07323836848700
C            0.12676976551230       -1.67096665976474       -1.34523602327798
C            2.36535525449393       -1.42748234044894       -0.49576491966377
C           -3.34563023622782       -0.94304930370016       -0.12615489967850
C           -3.92241077358967       -2.22774324139862       -0.33463673928950
C           -1.93997644436326       -2.93223838894617       -1.50200873231754
C           -3.19970623881487       -3.20690760981285       -1.06872530200571
C            0.60303785696090       -1.88318104539400       -2.64650416737249
C            1.93063522348216       -1.74331729439715       -2.90176095961103
C            2.83961483932550       -1.50023466688474       -1.83709720652481
H           -1.37308323052699       -3.64933103205429       -2.07373633892191
H           -3.67127664781864       -4.15232921358737       -1.28227895008841
H           -0.11135467519767       -2.06246523200769       -3.43378327187625
H            2.31540736609712       -1.80950074343641       -3.90668174611798
N           -1.99309816822287       -0.81773345828473       -0.39799683341672
N            1.00192652432312       -1.47781814664004       -0.32755920413529
C            3.30293934727863       -1.32078380785659        0.56334917193835
C            4.20272364429514       -1.35192695137337       -2.11395663138762
H            4.53091164701531       -1.39701458964849       -3.14117530732184
C            4.63827556994999       -1.17082123719895        0.22255742842858
C            5.09454291466743       -1.15678384141556       -1.08970646526829
H            6.14631705745242       -1.02323565961665       -1.29225411529545
C           -4.17925203590402        0.11522088077556        0.30901823960398
C           -5.21681124721912       -2.50085352078919        0.11510294524014
H           -5.61928922371770       -3.49152622131897       -0.02942534655932
C           -5.95502171386917       -1.51108027080314        0.71729795376554
C           -5.45095064887326       -0.21895769023354        0.75708444384050
H            5.36663373979761       -1.06873000745551        1.00861029006046
C           -3.80584803652089        1.57086409586579        0.15764178058194
C           -3.66161401952453        1.87548139741741       -1.34061849523883
H           -3.40298018202922        2.92267115554496       -1.47425989116640
H           -2.87902254200388        1.27260189215984       -1.79326755427035
H           -4.59847219848912        1.67780982247915       -1.86065759178134
C           -4.79703180726386        2.55338808207802        0.77694422040193
H           -5.75867474203555        2.53647092309615        0.26675323246891
H           -4.94039953656887        2.34977417656961        1.83493517842127
H           -4.38535177027001        3.55573032778886        0.68797629947199
C            2.94549347674139       -1.47696143640990        2.02411319583592
C            3.96493065429854       -0.88041280495752        2.99290924931432
H            4.88609213837636       -1.45894785556537        3.02940773303224
H            4.18966369092791        0.14985548142223        2.72553599354735
H            3.53362068349231       -0.88248772953982        3.99124061526328
C            2.75315437856605       -2.97223751178914        2.30814722191851
H            2.50576458011211       -3.11811894624126        3.35624258307470
H            1.94068141856142       -3.37510471686757        1.70845567033413
H            3.66399464044837       -3.52487453298657        2.08108595610410
H           -2.84810819874934        1.76160942042113        0.63483184560159
H            2.00585199995507       -0.97453762560641        2.22436788236783
H           -6.08976664381822        0.55835309513635        1.13827089193210
H           -6.94235790967055       -1.71662479755287        1.10096949107817
