75
 energy: -118.551439642124 gnorm: 0.000443235255 xtb: 6.5.1 (b24c23e)
Si          -0.42919931867781        0.48138534453717        0.97712460358492
O           -0.07733048056602        1.76649691275346        0.05362652887217
C            0.95036628485285        2.71861828513722        0.13871557955718
C            2.20002748469767        2.20757774378629       -0.53479859787377
H            1.15840555797344        2.93884301024665        1.19344832611610
C            2.10680696035929        1.28361405567867       -1.56688556234656
C            3.44889353971602        2.67807836985125       -0.15347243699890
C            3.24633313085024        0.83254113954057       -2.20757455701952
H            1.13220980503898        0.91934129574016       -1.85610132992582
C            4.58780956935674        2.23224300544877       -0.80088785253122
H            3.52572351327527        3.38924049639388        0.65624813634438
C            4.48917216587264        1.30882530857581       -1.82812056118593
H            3.16556379624634        0.10822869223987       -3.00529783954685
H            5.55673982289179        2.60516463213545       -0.50099734394718
H            5.37902781767665        0.95960851165568       -2.33056175576774
C            0.45971938492918        3.99524668342725       -0.57141231909815
C           -0.69526328714341        4.54519883750927        0.10442984250690
H            1.26864203749537        4.72976911323876       -0.58689383394991
H            0.19216513117685        3.73655165153316       -1.59939324734209
C           -1.65500830002466        4.96548905418226        0.68188302139275
H           -2.49577430268570        5.34421154015463        1.18125676499529
Cl           0.58998693454195        1.11977264444487        2.76654041510744
Cl          -2.22813437296451        0.34069660092204        2.04942055713117
O           -1.23272622005154       -0.11758141926425       -0.51710527698470
O            0.57756702199524       -0.90088652565553        1.03693242946766
C           -1.50889644103885       -2.36287076747817       -0.28641314961034
C           -0.09751230363086       -2.53081122906671       -0.52535755118930
C            2.24027908500990       -1.94155275737343       -0.29157845384816
C           -3.44945176793413       -0.93011819230349       -0.36952507733206
C           -4.25873728007234       -2.05774919312119       -0.05467800088802
C           -2.31900193045689       -3.49043262737692       -0.06540270187277
C           -3.65721196774879       -3.33459172752267        0.10769469138243
C            0.24163650159102       -3.52313105763474       -1.46280328741302
C            1.50596583067651       -3.60575651802879       -1.95036414388495
C            2.53026989764008       -2.78788536899076       -1.40051424732408
H           -1.84429094847547       -4.45195580936245        0.04626308469111
H           -4.28585321497555       -4.17322580356331        0.36193772880641
H           -0.55163816573007       -4.13189460140144       -1.86537089270169
H            1.75518452536654       -4.28914559510237       -2.74587344665886
N           -2.09312427172971       -1.14558132641617       -0.40879731145169
N            0.89978511844471       -1.78062514485408        0.03328282787475
C            3.32642059930232       -1.35137846552298        0.40250451253518
C            3.82577429094987       -2.87751306514959       -1.91501367159570
H            4.00034943516292       -3.51071645597680       -2.77144536054761
C            4.59205642118195       -1.47464657567335       -0.15685716538524
C            4.84963918475522       -2.18363055648885       -1.31951239785009
H            5.85202931250337       -2.22785731179729       -1.71649063845144
C           -4.06768516909499        0.31717406358700       -0.64359928183733
C           -5.64399720127300       -1.91832019569160        0.07848083738034
H           -6.23170327641254       -2.78574488654796        0.33691133042002
C           -6.23049645587526       -0.69639765029445       -0.12703423068975
H           -7.29715848902155       -0.57268002755016       -0.01978304508773
C           -5.44415621670493        0.38562596313742       -0.50559818879944
H           -5.94154035912152        1.31926234755004       -0.70370814850974
H            5.42423251262169       -1.00951269506842        0.34082871892030
C           -3.33040689915576        1.53010761391233       -1.17110583953334
C           -2.99770565175363        1.29022095251662       -2.64948929333558
H           -2.49799589580844        2.16405248913659       -3.05975942977289
H           -2.33730587680488        0.43462516181537       -2.76287315940942
H           -3.90741861514259        1.10811900353710       -3.22030800273833
C           -4.09255424853597        2.84550119777217       -1.01755700518660
H           -4.93405498506048        2.91415479770699       -1.70449708134688
H           -4.44610182978374        2.96578615169615        0.00328229316790
H           -3.41304605803402        3.66668142089856       -1.23482606549798
C            3.20891101385241       -0.72083758933862        1.76899894679640
C            4.44842770817660        0.03398279656587        2.24509652293460
H            5.27822168671176       -0.63769585047856        2.45775012583843
H            4.75715600254623        0.77891743639109        1.51594100922587
H            4.19279001590037        0.55235844512966        3.16605620964348
C            2.87407149372475       -1.82269552801486        2.78403189938757
H            2.76137300946084       -1.38189679204596        3.77034980772733
H            1.94305954364037       -2.32180649969408        2.53231631248200
H            3.67185157223358       -2.56389541682001        2.81528346113505
H           -2.39602959247177        1.65622772816879       -0.63128252230194
H            2.39873767356041        0.00161972801584        1.77078778114403
