75
 energy: -118.545462706062 gnorm: 0.000424742726 xtb: 6.5.1 (b24c23e)
Si          -0.03895577671817       -0.50932025178780        0.18638765464854
O            1.36144728540766       -1.27891476334702       -0.20948038099719
C            2.04821380676685       -2.36692544520875        0.33854128094569
C            3.39054744487657       -2.48404717346064       -0.33995052448209
H            2.18208966569742       -2.19297389862733        1.41675612367764
C            3.51145241485411       -2.19517522246676       -1.69278014764320
C            4.50600258750523       -2.90949228128210        0.36837959608061
C            4.73479895129319       -2.32131987349033       -2.32656315858892
H            2.64135833129635       -1.85590551370922       -2.23324540278122
C            5.72767640450299       -3.04148591113540       -0.26808623424161
H            4.41535776485407       -3.13300238587744        1.42182215775599
C            5.84506722513374       -2.74620175519245       -1.61610735016669
H            4.82263871812465       -2.08980641680377       -3.37840273120472
H            6.59193429594853       -3.37058129096990        0.29024928057695
H            6.80037821427960       -2.84491151907357       -2.11065668933504
C            1.26881851523880       -3.68724366833551        0.14330167251987
C            0.17733242677814       -3.79284868476328        1.08350907256182
H            1.95456920913836       -4.52688435020626        0.28639907685656
H            0.88342719116066       -3.71282252571982       -0.87875127296245
C           -0.69891842994483       -3.84701999597877        1.89638501020178
H           -1.47045836395207       -3.91297642728983        2.60225755596220
Cl           0.32216340046206       -0.44323434020979        2.24571479195866
Cl          -1.12550941889413       -1.59522031326580       -1.28516446254800
O            0.47883172102806        0.89698714068131       -0.63648144719396
O           -1.58710041616160        0.28038308942016        0.70270849068233
C           -1.02725329858481        2.65704142691852       -0.42164937603569
C           -2.13392975801663        1.85083015810503       -0.87029193136444
C           -3.58268483598453       -0.04360664752124       -0.53629450191700
C            1.26700056000300        2.92767407800752        0.29892293993172
C            0.92588535533227        4.22983098356456        0.76663328744428
C           -1.28719279075493        4.01132983961881       -0.15827802196323
C           -0.35715914985720        4.77066225788855        0.47834267331680
C           -2.94237668988747        2.31208978830556       -1.92239344476118
C           -3.96049352100054        1.53670914181335       -2.37991854876221
C           -4.30324379776742        0.33631336054264       -1.70234853713595
H           -2.27354199729993        4.39143360231795       -0.37025293661495
H           -0.57372110821436        5.78254516861239        0.78038273342705
H           -2.67158117429345        3.23471092380297       -2.41011742812049
H           -4.52835387477154        1.82039673804571       -3.25168669596732
N            0.23313617018610        2.17257880157582       -0.22381059299999
N           -2.46612852477534        0.69974496544446       -0.23399222464082
C           -4.05335171782812       -1.12551795845475        0.24979078588611
C           -5.36480229131541       -0.45017300247372       -2.16106609845214
H           -5.88036085443169       -0.15423329267741       -3.06175868727454
C           -5.10312497390734       -1.87004328701728       -0.26177225338559
C           -5.73331532346706       -1.57232970698903       -1.46485848903912
H           -6.53332441802526       -2.20310294941992       -1.82075917418778
C            2.61798496319685        2.50648930489114        0.38192970406690
C            1.85758286128433        5.00210476492756        1.46436306896310
H            1.56072347994431        5.97531576829568        1.82370836327373
C            3.12550955477550        4.51963023317683        1.67523316516367
C            3.49235814869415        3.31126857103571        1.10171991523215
H           -5.46593550167515       -2.71783326780264        0.29266397053452
C            3.18758035590173        1.33024456105270       -0.38124628975856
C            3.19266117785231        1.69321006395852       -1.87292752075163
H            3.63717561188427        0.88139512983889       -2.44244751506858
H            2.18169820915798        1.85101592179272       -2.23814424709146
H            3.77304284772102        2.59949659621454       -2.04262375050698
C            4.59657070254818        0.91773333427231        0.04265110626018
H            5.33754756954839        1.66982828885874       -0.22229777587090
H            4.64204611479875        0.72173930393694        1.11127181892750
H            4.85865191287072       -0.00171005577923       -0.47503658861721
C           -3.55007137977686       -1.40783624128296        1.64951631425427
C           -4.08259239722347       -2.70276989247760        2.25994472865640
H           -5.15769880320395       -2.65672061368116        2.42333321458663
H           -3.84752694464701       -3.55765578939664        1.62995668007091
H           -3.61249765747073       -2.84818778561689        3.23058961929452
C           -3.94365736735235       -0.23068884903938        2.55326862888869
H           -3.61929786021385       -0.42423784587716        3.57250354189892
H           -3.47591362992574        0.69246938730894        2.22473344198142
H           -5.02473773265241       -0.09736177885556        2.54874433549937
H            2.55798475583068        0.45554755107752       -0.25326535464193
H           -2.46312745834681       -1.48501026850267        1.63606344765314
H            4.51486434892154        2.99656662647627        1.21362586010801
H            3.84753596353409        5.09139636928664        2.23741167732595
