75
 energy: -118.547375940702 gnorm: 0.000737937726 xtb: 6.5.1 (b24c23e)
Si          -0.08665012836153       -0.16380198050399       -0.46464322651071
O           -0.84063088330405       -1.41663390428234       -1.15806768694718
C           -1.02212220577357       -2.75936946351700       -0.76676418519483
C           -2.22508284805250       -2.89496406546881        0.12980879274273
H           -0.12745866135667       -3.10609225777053       -0.24182638544600
C           -3.42096457329839       -2.28441075446155       -0.22582250877295
C           -2.16082913197627       -3.64106154576272        1.29792526698669
C           -4.54474144388773       -2.43810038006334        0.56577506957439
H           -3.46014703771482       -1.68205703622458       -1.12188767754278
C           -3.28242272784415       -3.78240855485864        2.09603826669881
H           -1.22755279700394       -4.10165010831676        1.58638607512705
C           -4.47767015686435       -3.18844002423369        1.72793882865658
H           -5.47741542395234       -1.97893441718181        0.27102711037849
H           -3.22316142010929       -4.35937981232118        3.00726502511551
H           -5.35499447431438       -3.30698387773064        2.34727681507925
C           -1.22747858149534       -3.59222606551956       -2.04568566655883
C           -0.10454874018218       -3.46454797492232       -2.94859880751092
H           -1.36596771659144       -4.63969477858315       -1.76347310366369
H           -2.12808811338592       -3.23915095345779       -2.55411611217034
C            0.82132089032580       -3.33138136397175       -3.69490518488816
H            1.62175282965468       -3.21915670496056       -4.36346198011435
Cl          -0.72558822168905        0.95219664104158       -2.20122600592559
Cl           0.41323477136046       -1.23016244949213        1.38249252556911
O           -0.50177584234257        1.10343518186412        0.61841310474099
O            1.53552196464561        0.25610206255020       -0.81197572545668
C            0.93204534835134        2.81689899054866        0.10774421132650
C            2.05927737483310        2.03573747702925        0.56634573922310
C            3.38370191866915        0.00557783136586        0.66172806189777
C           -1.45233832698896        3.13765932198237       -0.14955586328069
C           -1.18962107101256        4.40958281822761       -0.73096514389581
C            1.17455051461428        4.11967919514102       -0.35811892800631
C            0.14706615559815        4.87986396358092       -0.82057947268092
C            2.94575963595265        2.67528736839758        1.44857588205548
C            3.96579567115146        1.98126806220301        2.01738040513393
C            4.19183943833105        0.62481645371038        1.66250703571562
H            2.19611395138797        4.45785581825989       -0.42518519809652
H            0.32729957065036        5.84651051505923       -1.26340872828759
H            2.73853380106921        3.69541316299802        1.72936640738412
H            4.60768215322761        2.43827140252396        2.75338691213964
N           -0.35462989334518        2.38888324880068        0.20208986257981
N            2.33714001963371        0.75920063910301        0.17007283059883
C            3.71769108999005       -1.30206322134953        0.23948946423354
C            5.22831343010196       -0.07565249040557        2.28402576403320
H            5.80526769818008        0.42267679653663        3.04786742342884
C            4.76327179501182       -1.94349542565138        0.89428714393943
C            5.50162466349023       -1.36942845781370        1.91563806155222
H            6.29222735347728       -1.92646058850556        2.39410994807839
C           -2.79487814483795        2.73329400317527        0.05727194050233
C           -2.24020846010378        5.20732305187534       -1.19448101341075
H           -2.00983187635309        6.15965190062927       -1.64662362508720
C           -3.53462138756442        4.77452198553931       -1.06522083189412
H           -4.35532848405985        5.37212363556307       -1.43094848151951
C           -3.79084545796023        3.56840482053078       -0.42500891265898
H           -4.82048211308860        3.28289651278987       -0.29804399557140
H            5.01871007347896       -2.94447623393628        0.58779415350581
C           -3.19416950928389        1.51069412211068        0.85995762046037
C           -2.85820926402868        1.75787424818402        2.33712398754874
H           -3.15478609564439        0.89598005767356        2.92978500313457
H           -1.79301860594811        1.91227981122565        2.48052431976972
H           -3.39167708327182        2.63487259259156        2.70146269649502
C           -4.66953752368311        1.13108336419837        0.74501073362208
H           -5.31491837235703        1.87171638132088        1.21333092544577
H           -4.96020496457710        0.99956261595594       -0.29454061511896
H           -4.81970685588120        0.18591565538573        1.26182641982520
C            3.11059723381256       -2.08419723116726       -0.90859554106037
C            2.68370616910973       -3.48797289200786       -0.46760080930784
H            3.53597340193345       -4.14317985889067       -0.30542116324455
H            2.11190727344999       -3.42714678008753        0.45543599629856
H            2.06112107616297       -3.93109234770265       -1.24168609683881
C            4.12607235523791       -2.16020468099054       -2.05427228978900
H            3.70704133694027       -2.74311296106709       -2.86969903707637
H            4.35766741409942       -1.16361060888551       -2.42425836511965
H            5.05204666619518       -2.63246762430390       -1.73301601790630
H           -2.62736569870968        0.64725320147260        0.51329284478355
H            2.22793827759272       -1.58949603442300       -1.29823728896109
