81
 energy: -124.859555790201 gnorm: 0.000569044060 xtb: 6.5.1 (b24c23e)
Si          -0.30515784135803       -0.06588589882512        1.16348621193183
O            1.22125557949689        0.48861296853057        1.01174739127366
C            1.92532920391350        1.62437516646330        1.45658284985218
C            2.46876117932018        2.31192248469035        0.22289233928066
H            1.22487603825936        2.30290499154590        1.96445068051108
C            1.56131480336666        2.62621505537518       -0.78453723402791
C            3.80889154624522        2.61373929921038        0.03099539496106
C            1.98276484047931        3.21751128887173       -1.95938509173715
H            0.51573282987124        2.40040420646131       -0.63683881547644
C            4.23009944604885        3.21774474012975       -1.14263800900855
H            4.53947021416044        2.38622338104643        0.79104010935297
C            3.32280374064600        3.51642251348342       -2.14227549899604
H            1.26366487392945        3.45278169957350       -2.73072036987850
H            5.27668715747546        3.45137739129045       -1.27529803168726
H            3.65607228472605        3.98410863369969       -3.05739140155484
C            2.99015651811693        1.17455447142224        2.46627138184813
C            2.34907234071403        0.51093958642217        3.58308974485226
H            3.53882355300167        2.04723922975928        2.82821949257138
H            3.67790240649941        0.47833592062122        1.97737119897116
C            1.77300726437522       -0.04575606176169        4.47126988292855
H            1.27383857950470       -0.53162672573994        5.25496266657587
Cl          -1.15343202857303       -1.50123482621040        2.37808589401763
Cl          -0.99100645973675        1.56042367077127        2.39659452360487
O           -1.35853096481260        0.51661079634127       -0.05650134087651
O            0.21888266458779       -1.47049649755049        0.16151262079916
C           -1.26482345666261       -0.88366190471630       -1.93747123907240
C            0.17801365750837       -0.76083189107739       -2.01033550092138
C            2.29314040745369       -1.16042205175598       -0.95928126145603
C           -3.37015743150766       -0.37524239456056       -0.89838623529261
C           -3.91682993258242       -1.54268254404601       -1.51084114451050
C           -1.89933569634946       -1.77200092521001       -2.81244255144477
C           -3.17020474627627       -2.18758125239558       -2.53271491473981
C            0.80187798103324       -0.26190127328610       -3.15669682918570
C            2.13414570148567        0.02908130501609       -3.10229012299837
C            2.90304377642843       -0.36944744292584       -1.97699292566797
H           -1.31337677123490       -2.22373070425115       -3.59663815106775
H           -3.62240648801955       -3.00174898327177       -3.07495420097111
H            0.19128182229359        0.00302634010921       -4.00494498588736
H            2.62271829162974        0.56370844244557       -3.90046117276230
N           -1.99825876623549       -0.22681687470640       -1.00672703941881
N            0.91961757074660       -1.18159556238320       -0.96153624506091
C            3.11367133350474       -1.84846600275112       -0.03387760418601
C            4.25265975878146       -0.02350118286825       -1.87442625729325
H            4.69579119652735        0.59215494949883       -2.64097915978163
C            4.42133870721498       -1.38640582286794        0.07426450804441
C            4.97744220193528       -0.45169270324177       -0.78861032178798
H            5.99714993686825       -0.12857871535963       -0.64546585624183
C           -4.23459340972815        0.51273896105705       -0.22479746554219
C           -5.18621610044414       -1.98982749307293       -1.14252862969102
H           -5.58013527566089       -2.88729927302496       -1.59297657459276
C           -5.90046408646073       -1.28456187742837       -0.19967688082732
H           -6.84340143031131       -1.65765611791159        0.16858311930395
C           -5.45158233323730       -0.03355296468837        0.18845709787148
H           -6.09504451330108        0.55847848861829        0.81873716505934
H            5.05509897976948       -1.79222009615095        0.84523670506569
C           -4.11710825167073        2.03329995510621       -0.10446004496239
C           -4.19127491015209        2.49020221279951        1.35522760820066
H           -5.11617044585814        2.17577676931619        1.83048900867276
H           -3.35572859822435        2.08843363276807        1.91922254631498
H           -4.13809541317929        3.57532482867669        1.39923053625609
C           -2.87981021794528        2.65938040577295       -0.75320615067144
H           -2.67435320513399        2.21982246992868       -1.72814657650551
H           -3.05663449269954        3.72355653346644       -0.89650281787340
H           -2.01052854604762        2.55589652198795       -0.11563742712920
C           -5.32959363340787        2.59613655164676       -0.88057732106373
H           -5.28686878942093        2.28867839140015       -1.92430973304875
H           -6.27680186164474        2.26342874486466       -0.46780413098196
H           -5.31130454169627        3.68279841494017       -0.84151331748748
C            2.74477349131030       -3.12576630677129        0.72041555120979
C            3.98681170575174       -4.03719256854980        0.80257738377228
H            4.46880291938328       -4.13046109818107       -0.16870145221942
H            4.71450010788476       -3.67773398214098        1.52443303543001
H            3.67991279774382       -5.02830553921205        1.12784646154289
C            2.28677446364475       -2.82507610311186        2.14995459777280
H            3.04566289493706       -2.26046215845816        2.68694675268312
H            1.37181653585951       -2.24750316402224        2.15202100978352
H            2.10442734351794       -3.75640195817799        2.68083465043247
C            1.67554308105437       -3.93158594333193       -0.03178011075054
H            1.60877985059352       -4.93007193366082        0.39410930735303
H            0.69483253961392       -3.48122432096563        0.05596715134533
H            1.93906252037743       -4.02721227450567       -1.08478443309285
