81
 energy: -124.859602267616 gnorm: 0.000570391685 xtb: 6.5.1 (b24c23e)
Si          -0.29552532470159       -0.13621067184018        1.18292911633728
O            1.16855360712263        0.55851711961070        0.99491995904096
C            1.79693180905637        1.72202868211080        1.47999111691408
C            2.20094791987257        2.53748965376832        0.27071911477447
H            1.07293299318349        2.29803651529666        2.07399642826066
C            1.21112837747612        2.82949923405423       -0.66312182746892
C            3.49438810219149        2.97750149970099        0.03080583610479
C            1.50774559226485        3.53194316686362       -1.81475492709082
H            0.20066495345552        2.49772096046495       -0.47666259972948
C            3.78946393476105        3.69296202965897       -1.11841436358204
H            4.28592918565238        2.77278347841802        0.73413239212174
C            2.80208959256442        3.96710034286359       -2.04664704968596
H            0.72644807023518        3.74692221803989       -2.52937857346308
H            4.80068137801830        4.03386863115998       -1.28803449854663
H            3.03745057490026        4.52127742003318       -2.94371242691160
C            2.95846033395095        1.30534728545519        2.39273936330498
C            2.45164812365543        0.50474294691503        3.48853085276448
H            3.44590269537774        2.19870184298050        2.79020065959905
H            3.67603992684914        0.71503377393561        1.81530778693609
C            1.98500147490975       -0.16844131971290        4.36006271837440
H            1.58053261601831       -0.75475055217306        5.12946612395354
Cl          -0.94879204383333       -1.71766704141434        2.33416117935561
Cl          -1.04436300902982        1.33830989585902        2.56190447168890
O           -1.46610612934490        0.42955777609931        0.06825639677198
O            0.28638881994255       -1.41766901404261        0.05455687804272
C           -1.34103829835329       -0.79306197524611       -1.93137703130224
C            0.08226586576359       -0.54857175759848       -2.05020244787990
C            2.27149156820183       -0.85906128584237       -1.12761863314217
C           -3.42954575632051       -0.57181245932734       -0.76375894902004
C           -3.90437581165973       -1.72036913997380       -1.46569288475441
C           -1.94219801674447       -1.64505700213207       -2.86529967362478
C           -3.15923135678915       -2.19365166826328       -2.57886673210160
C            0.61074949225299        0.08368956059058       -3.17939236986936
C            1.91827035270807        0.47246952111158       -3.16082596011026
C            2.76957203746890        0.05221285214430       -2.10467984471328
H           -1.35895836053841       -1.96753543934488       -3.71278451355742
H           -3.56974263622181       -2.98634683974440       -3.18262292938926
H           -0.05896509924584        0.36474941895516       -3.97630081726317
H            2.32561556192913        1.10159168883833       -3.93536881052613
N           -2.08282959443873       -0.28995960147403       -0.91477425743411
N            0.90502474647710       -0.98972299008654       -1.07221384057182
C            3.18662508951977       -1.54694286908076       -0.29522929499902
C            4.09195729853697        0.49645107738403       -2.03276057300730
H            4.44920083811303        1.20077711123416       -2.76714935622421
C            4.45830007493713       -0.99011716584961       -0.20567418009779
C            4.89897312407367        0.04824602927122       -1.01502723529311
H            5.89646429851483        0.44077576844834       -0.88979139162246
C           -4.33359257452911        0.16341187179372        0.03202507663415
C           -5.10807315394552       -2.31695693033444       -1.08942665136931
H           -5.44440993594201       -3.19916281377274       -1.61109465349567
C           -5.83011197262946       -1.77639424200185       -0.04882388899962
H           -6.71492746289988       -2.26961318354950        0.32230570503034
C           -5.47301270927024       -0.53203681407263        0.44229081863716
H           -6.13174710045681       -0.06607080292663        1.15693475355027
H            5.15721970934954       -1.40025906304026        0.50432460832526
C           -4.34903312145739        1.66985228390824        0.29873761654068
C           -4.39037087821640        1.97524025420311        1.79887416383798
H           -5.25984184619012        1.53357803161476        2.27755879305981
H           -3.49605727917884        1.59937854004823        2.28512797195216
H           -4.42939245623854        3.05134407788193        1.94929426164127
C           -3.20925652762208        2.47170319114498       -0.33492334594342
H           -3.01088319335738        2.14604025608242       -1.35482475293391
H           -3.49244892916845        3.52180001598396       -0.36824127393340
H           -2.30437233394710        2.39647609220169        0.25505963593060
C           -5.64596556698784        2.18572942048801       -0.36566960854616
H           -5.62578330539342        1.99085570818799       -1.43668123994984
H           -6.53642060719973        1.72151732984048        0.04628408148579
H           -5.72786668523684        3.25934020438422       -0.21336184129753
C            2.95559293549946       -2.90391678391926        0.36910021359078
C            4.26798795165044       -3.71391591085883        0.32661081804729
H            4.71193730316625       -3.68907409636379       -0.66674050623319
H            4.99656623330025       -3.35457904699584        1.04776066222332
H            4.05531606434975       -4.74990298695077        0.57938497297363
C            2.54454265474704       -2.75246221959000        1.83599974574219
H            3.27668406179049       -2.16209132749975        2.38230925999862
H            1.58384658959874       -2.26238051917384        1.92161184911314
H            2.47060674046665       -3.73320477339932        2.29976516039878
C            1.91762520250543       -3.73396207192480       -0.40038125224460
H            1.94854875470928       -4.76414167680888       -0.05322658911310
H            0.91039236159835       -3.37214669385680       -0.23655047492478
H            2.13741608439845       -3.72727202884712       -1.46754949109387
