81
 energy: -124.859529829264 gnorm: 0.000259040974 xtb: 6.5.1 (b24c23e)
Si           0.20435552813216        0.81702369472921       -0.47137631409619
O           -1.17244709408793        0.82541401774501        0.40228433682584
C           -1.81187832316976        1.75578485450956        1.24979851545149
C           -3.05056283803847        2.24593799474553        0.53289404459615
H           -1.13846567987080        2.60680511933604        1.41482153560110
C           -4.33958610676836        1.85237199307723        0.86239615284493
C           -2.86346465984016        3.08763447954376       -0.55930096448401
C           -5.41874932407516        2.29143720276224        0.11233366995876
H           -4.52099891694933        1.20419023283821        1.70549990753287
C           -3.93981143749396        3.52078506598680       -1.31031050900013
H           -1.86267970675472        3.39814572269211       -0.81895581600963
C           -5.22361594322355        3.12166357223185       -0.97668459360985
H           -6.41789550506210        1.97910405303511        0.38174156936586
H           -3.77602296698473        4.17032747532922       -2.15695364827053
H           -6.06738550459629        3.45749958815183       -1.56162265377621
C           -2.07336544073582        1.06205548814716        2.59416787791117
C           -0.82943981417331        0.56912903937204        3.14708649570588
H           -2.53163472198421        1.77610277615837        3.28250275100865
H           -2.74413637127279        0.21235326356956        2.44725189975388
C            0.21156716095448        0.13500682676127        3.54601966796092
H            1.12258676940865       -0.22070343814170        3.92403900995090
Cl           0.51526529646851        1.11933097593648       -2.49473428548638
Cl           0.78983097732970        2.82537254614267        0.03691299454190
O            1.60025927571285        0.29362570129523        0.36171526726585
O           -0.24666161322400       -0.85043241754855       -0.97441601628492
C            1.79945182220596       -2.04521714356964        0.16163371194259
C            0.45835395853642       -2.26893230049701        0.66285094134168
C           -1.89534926687147       -1.91211156151310        0.37699250832677
C            3.63021284205779       -0.60222077439281       -0.41185426786100
C            4.15898831264200       -1.64243727992104       -1.23158253404282
C            2.51510586602186       -3.14971376813032       -0.31645336493001
C            3.60932308939256       -2.94632075425907       -1.10820984518087
C            0.23984883339350       -3.08634718563937        1.77453267960595
C           -1.00413210145575       -3.10943489420373        2.33288775611920
C           -2.09016171756998       -2.47425830648932        1.67478368056809
H            2.09203533864967       -4.13143080499438       -0.17612971732386
H            4.07135332912702       -3.76116555167858       -1.64098613584764
H            1.08435034116299       -3.57197274840297        2.23641634503982
H           -1.18389563700907       -3.59772590564021        3.27689344937288
N            2.35327741885530       -0.81151397916672        0.08346583260427
N           -0.58759873220604       -1.71995512319799        0.00521824166486
C           -3.02959389004976       -1.59073642762469       -0.41000816820750
C           -3.34955591683383       -2.41879335147456        2.27912118570319
H           -3.47493154066050       -2.82986323333475        3.26887991804975
C           -4.22975106444757       -1.46218318595338        0.28097157485110
C           -4.39117762382005       -1.81691581238581        1.61340330452436
H           -5.34986833912622       -1.68662906566231        2.09232352966155
C            4.40985058075620        0.54981054697576       -0.18046271930457
C            5.23438895802686       -1.37667772359551       -2.08039232529810
H            5.61113997415100       -2.16303420257063       -2.71536869163133
C            5.77952269176256       -0.11213849504781       -2.10000305624935
H            6.54956477124861        0.14384464403422       -2.81095556115741
C            5.41128464269160        0.79611734171441       -1.12145650556059
H            5.95087944705590        1.72782009223339       -1.06941916466525
H           -5.09412890881886       -1.09204265382384       -0.24288994473183
C            4.45151466519893        1.41031232870546        1.08304464285614
C            4.19152739831387        2.88640605288566        0.77228668283770
H            4.90570512740845        3.27567551874002        0.05187179598638
H            3.19141410983689        3.02089424580713        0.37425746040216
H            4.27487342734930        3.47149953737344        1.68507295322849
C            3.51700711350113        0.96112401181940        2.20945782027388
H            3.56564193272871       -0.11829799092180        2.34986533535301
H            3.82982370768608        1.43637304996522        3.13737571416345
H            2.49178134310382        1.25621105774633        2.02046427059490
C            5.88525191522524        1.25309256217263        1.63900705262891
H            6.09769802694979        0.20676534826669        1.85285894018237
H            6.63921355978597        1.61809399312014        0.94879757042326
H            5.97860113891541        1.81855822137353        2.56329957558728
C           -3.09093258455368       -1.52621837363685       -1.93605502356626
C           -4.45010227980653       -2.08236816353614       -2.41005681785624
H           -4.68358618772138       -3.02336177325683       -1.91564070783366
H           -5.26243817728803       -1.38167573281715       -2.23929454731997
H           -4.40582497168343       -2.26245087427945       -3.48149719862777
C           -2.97756830330585       -0.08536691583793       -2.44127866304142
H           -3.72589863959168        0.54482116312844       -1.96535794829000
H           -1.99995858402704        0.32529467174577       -2.22767111242453
H           -3.13009249767227       -0.05948705065717       -3.51763812835074
C           -2.02053162339060       -2.41871807431941       -2.58058475301533
H           -2.23029008221782       -2.52599479668721       -3.64224917783562
H           -1.02994979420260       -1.99105286881051       -2.49292792790675
H           -2.02920525915041       -3.41047836827079       -2.12923536110284
