81
 energy: -124.858924249230 gnorm: 0.000463674301 xtb: 6.5.1 (b24c23e)
Si           0.16568488784157       -0.38197519471285       -0.01498295402899
O           -0.52134897100853       -1.84382163654996       -0.05106109564361
C           -1.48616866748625       -2.46605268055837       -0.86441098921452
C           -2.67859909127209       -2.85144128926981       -0.02588487523870
H           -1.80262435044315       -1.77699938252099       -1.65515525832687
C           -2.52580305506258       -3.18672767358716        1.31199395005250
C           -3.94364566297406       -2.88781219880405       -0.59846202897202
C           -3.62674540816423       -3.54461943870179        2.06982567396659
H           -1.54300059725845       -3.14539101241057        1.75543220378425
C           -5.04206266634979       -3.25256853303999        0.15890250503538
H           -4.06446193018509       -2.62300465288241       -1.63974388185254
C           -4.88580905463673       -3.57962913126768        1.49563403906532
H           -3.50058483228629       -3.79750926312396        3.11230871094382
H           -6.02307875948024       -3.27603312264172       -0.29347737828369
H           -5.74520805121579       -3.85869777850150        2.08774993707035
C           -0.86089942458774       -3.72021183776367       -1.50952897576790
C           -0.01597657368106       -3.36089535525202       -2.62697029288005
H           -1.66239172176372       -4.37909107260608       -1.85455509726757
H           -0.27426573037116       -4.24087252851794       -0.74874299780642
C            0.65254515731317       -3.01688534074286       -3.55756928501008
H            1.24753830779813       -2.71991897771425       -4.36826314871878
Cl          -0.58503116203400        0.23032001255007       -2.00758500256048
Cl           0.96650893936042       -0.95459356999365        1.90478341768698
O           -0.45898347146383        1.01177414494603        0.74485328134835
O            1.68311171658780        0.17652032117250       -0.58273319562981
C            0.80380157594724        2.74534331997656       -0.12094669079695
C            2.00515942009031        2.19894869026683        0.48486410557317
C            3.56849945631145        0.39603014139408        0.83042958001456
C           -1.58561458308680        2.70998219374950       -0.44051331659165
C           -1.42854867626605        3.66858399709374       -1.48204111528112
C            0.90771355980484        3.89270533441192       -0.91535481132699
C           -0.16552505478165        4.29246198209400       -1.65788070390049
C            2.73023564810669        3.02118233573086        1.35491697238527
C            3.70284069204404        2.47075918603017        2.13610360077842
C            4.09327824751349        1.12023249749313        1.94152295458654
H            1.87647489487447        4.35253640324192       -1.02860812472124
H           -0.06960641019148        5.07139086543269       -2.39701016008486
H            2.40666287845111        4.04135414790613        1.48616223470656
H            4.17235778218214        3.03919497465995        2.92253585607849
N           -0.42386033430781        2.21193217372527        0.09945297088868
N            2.46040851623263        0.94581480243941        0.22764142025391
C            4.19047116009243       -0.81583117722364        0.44299364396299
C            4.99725688847821        0.51014682952080        2.81395913186598
H            5.36688591264703        1.06723818488460        3.66056512484823
C            5.00368020826238       -1.40814775623321        1.40395181595608
C            5.36787424066865       -0.79312499167612        2.59306990473510
H            5.99434085465090       -1.31688634691091        3.29808308478641
C           -2.88505479511022        2.31746221481914       -0.04150949878685
C           -2.51454270981029        3.99064830694285       -2.29939053567371
H           -2.37795269694248        4.70098401447737       -3.09974359442243
C           -3.72234767979204        3.37135560169617       -2.08711855890429
H           -4.55170492615749        3.53788150105656       -2.75698818943181
C           -3.90140123385222        2.59592972342497       -0.94978359542593
H           -4.88970571362375        2.21340400598007       -0.76067992727986
H            5.39753506079789       -2.39201994915196        1.21744497483706
C           -3.28036487443285        1.77164195220649        1.33355608826201
C           -3.30633575374517        0.23948726431599        1.36640323423892
H           -3.88712374635294       -0.14909499834720        0.53254409719855
H           -2.30888797049908       -0.17787650652395        1.31231843089647
H           -3.76265297400624       -0.10254694570474        2.29256708747687
C           -2.36122813687623        2.33052067382891        2.43131474867444
H           -2.26334619272886        3.41066487914390        2.32910437723090
H           -2.79321077453725        2.11852178024411        3.40660594695532
H           -1.37763186614406        1.87843554547888        2.41513974134074
C           -4.70169089422243        2.25874886377208        1.68306143985609
H           -4.80956468181331        3.32478835863903        1.49407173979154
H           -5.46498534849876        1.71999604931419        1.12882129422219
H           -4.88884187632722        2.07934924556983        2.73914173022679
C            4.16186734931505       -1.45994954817399       -0.94563896780615
C            5.49787231856718       -2.18954592188441       -1.20052701242844
H            6.34604215289948       -1.56320855166444       -0.93221495633874
H            5.56236597961145       -3.12785523610519       -0.65701854009018
H            5.57430368232937       -2.42988191787089       -2.25843812271270
C            3.04641056304808       -2.50469578075984       -1.05950271012841
H            3.06831231856154       -3.16988622198327       -0.19918733223525
H            2.06877918539629       -2.04218833405701       -1.10851546014727
H            3.18020504192397       -3.09547425327157       -1.96261721143767
C            4.05308348050577       -0.39909539958041       -2.05158318679953
H            4.24105746821279       -0.86351510298560       -3.01699391511420
H            3.06971172254955        0.04993116520135       -2.10039992990827
H            4.79727681678042        0.38185892645636       -1.89861542647754
