81
 energy: -124.857673737554 gnorm: 0.000276584372 xtb: 6.5.1 (b24c23e)
Si          -0.54027917708219       -0.17444882242230        1.08224019203242
O           -0.11922467870240        1.38554875776297        0.96937243910697
C            0.89180362061681        2.12010199342593        1.61053217046817
C            2.08814833132266        2.25669878169723        0.70286730707440
H            1.18193956712130        1.61363876445560        2.53914963085139
C            1.91693747886428        2.28921561096704       -0.67442891965885
C            3.36365701471664        2.39173899582941        1.23364099733625
C            3.00296646737535        2.47524984163217       -1.50980772471139
H            0.92410074685942        2.16561967409739       -1.08035949416874
C            4.44874848634643        2.58318369372393        0.39719982446691
H            3.50191753936248        2.34919561621315        2.30432882760831
C            4.26951597558421        2.63471209013785       -0.97469125558067
H            2.86018707979154        2.50333915728927       -2.58042995500421
H            5.43763158906865        2.69593985127309        0.81747157297124
H            5.11547294512252        2.79933426476276       -1.62566437418495
C            0.32727861867030        3.51339178049438        1.95159892036100
C           -0.75131068964228        3.39848330389015        2.90932020070074
H            1.12888621337403        4.13158433128650        2.36352362969289
H           -0.04438708166123        3.97410797528306        1.03287925274462
C           -1.63989655229230        3.25337166612712        3.69679927714273
H           -2.41800513691368        3.13893942098801        4.39030607569418
Cl           0.42294551267819       -0.63253708712715        2.95173207157138
Cl          -2.37206335692898       -0.81384923887086        1.90156692357628
O           -1.35243201245460        0.10901729534462       -0.49296202776364
O            0.53001636245314       -1.33087955970708        0.41591725643551
C           -1.47859035669042       -1.92076718226092       -1.53452290069149
C           -0.06470503422695       -1.80963832762194       -1.82003348035816
C            2.22271365638333       -1.37708555585618       -1.21997066288484
C           -3.49994167763390       -0.82567959813613       -0.84045027404952
C           -4.17151214587628       -2.07894451254741       -0.94482846350787
C           -2.19162862457558       -3.06651987004080       -1.90628708609965
C           -3.49395967995323       -3.18518968077692       -1.52183822675491
C            0.30632005433312       -1.91893609535975       -3.16854909238551
C            1.52830422076180       -1.46563231431803       -3.56777135163113
C            2.50060590677273       -1.10981814631025       -2.59450697877553
H           -1.65853884188911       -3.87832279329705       -2.37445554577834
H           -4.03020163292057       -4.11155365295555       -1.65106476107236
H           -0.44596679200241       -2.21706060867983       -3.88089339360487
H            1.77750292198077       -1.37632820045001       -4.61244252470006
N           -2.13576641094229       -0.86568305159650       -1.00070110010625
N            0.88517405830642       -1.53274244002574       -0.89129239084916
C            3.30506227772377       -1.44390552208504       -0.31541921204423
C            3.73369577265488       -0.57950956766692       -2.97202653571730
H            3.92113555167031       -0.37410128110710       -4.01439266829672
C            4.47157790598333       -0.79295487427811       -0.72278622249677
C            4.67725605088498       -0.31629272509113       -2.00471471624076
H            5.60515499939903        0.17203992656138       -2.25687403902085
C           -4.25303316503692        0.34599854074217       -0.58105478668152
C           -5.49072826895653       -2.20219023001104       -0.50035532015715
H           -5.97812350208727       -3.16259475607001       -0.56388277076082
C           -6.12722834224392       -1.10748452717440        0.02906428648383
H           -7.11561098427555       -1.19576768269774        0.45246860375201
C           -5.52706978886575        0.14149595746482       -0.06619297115395
H           -6.10079315397140        0.99162051589706        0.26016951847984
H            5.27532362698233       -0.68550495672036       -0.01320624518831
C           -3.84969548851965        1.77640735840614       -0.94252108377407
C           -3.17019450367115        2.48884438324784        0.23167166828621
H           -3.77054000317295        2.39002344418485        1.13267883326913
H           -2.19073744282006        2.07472022045395        0.42941841673294
H           -3.05809893021440        3.54690080144408        0.00475932991889
C           -2.95175035637789        1.79808574665468       -2.18876114565196
H           -3.39421370608558        1.20285925207017       -2.98690216772991
H           -2.84902831096028        2.82126956060416       -2.54372433579785
H           -1.95659289621024        1.42919859167367       -1.97600627378889
C           -5.10953693629582        2.58585805971213       -1.31169848298506
H           -5.74439856212508        2.03413496755131       -2.00211345227149
H           -5.69059124122690        2.85774001558146       -0.43516261297872
H           -4.80795759046403        3.51309407747045       -1.79365673035189
C            3.44203539880795       -2.31258146836771        0.93629811408517
C            4.68651264761365       -3.20112805460776        0.70850399752934
H            4.56651386809297       -3.79723724748742       -0.19446916069888
H            5.60303436504566       -2.62721190528151        0.61828369386375
H            4.80368268946016       -3.87684209325132        1.55236414591002
C            3.66292017161150       -1.44935514286780        2.18076540110042
H            4.53087879845743       -0.80465535820198        2.06734462468144
H            2.79185981657650       -0.83151218639126        2.36965154283656
H            3.81638300769640       -2.08787977909821        3.04690201518041
C            2.28563096822593       -3.28733706950389        1.17975079211978
H            2.61815737967812       -4.07064640029657        1.85728573446240
H            1.44004436592790       -2.79768941866895        1.64409834433524
H            1.96826802561503       -3.75961130111316        0.25117628529010
