81
 energy: -124.846915549745 gnorm: 0.000708220242 xtb: 6.5.1 (b24c23e)
Si          -0.00914693053397       -0.55447401541590       -0.57600174436497
O           -1.37482795399598       -1.45895635282978       -0.44327066748240
C           -2.12524531691651       -2.03071205052487        0.59373720621681
C           -3.34678174328966       -2.69807146457364        0.00723098719344
H           -2.44688004494501       -1.23273812440327        1.27482902736556
C           -3.33635322560279       -3.18759873955833       -1.29032448080605
C           -4.49295141497840       -2.83935944149006        0.77966968249125
C           -4.45947493530350       -3.80669520295065       -1.81023515848268
H           -2.44746605828965       -3.06215297832586       -1.88839515949871
C           -5.61308886923983       -3.46273398078605        0.26091209219761
H           -4.50676341424375       -2.45506701293770        1.79073132795139
C           -5.59860268603857       -3.94717145226087       -1.03661057958933
H           -4.44485583229471       -4.18025704146571       -2.82357292919673
H           -6.50112903309840       -3.56655202543511        0.86789529602159
H           -6.47552774249101       -4.42967881507840       -1.44294327835739
C           -1.32171978739938       -3.05868169234374        1.42138183873554
C           -0.41304273921600       -2.39456080871875        2.32747448096399
H           -2.02386141177724       -3.66922541493173        1.99550392467302
H           -0.76286304389946       -3.70483186743183        0.74184802950011
C            0.30009135636729       -1.79111465715652        3.07579375081357
H            0.95447919324405       -1.29683083351159        3.72915992300172
Cl          -0.36050373746516        0.04210851540619       -2.48758385809992
Cl           1.25615858734368       -2.26994061622777       -0.35347748088506
O           -0.69086568178672        0.63498585326546        0.51159851906504
O            1.53130987515288        0.43449624935162       -0.60447634605321
C            0.88515834554378        2.15313571675658        1.34000682977080
C            1.87509442525832        1.12864208902354        1.55827932169421
C            3.39977221431776       -0.43359920519199        0.56420423873437
C           -1.12807646940547        2.96275613233293        0.30310918967386
C           -0.52191115382631        4.25554467686728        0.25081556593102
C            1.27196287988373        3.46743196466300        1.64756405344077
C            0.63648825150811        4.50418446274729        1.03769658769345
C            2.48281151662319        0.95689313687119        2.81000078957740
C            3.35085067868744       -0.07809247663234        2.98905610681438
C            3.80925558563888       -0.82550480720409        1.87121357153306
H            2.16830491010381        3.61447764518337        2.22807065111524
H            1.00544886572011        5.51362103926384        1.11783398066759
H            2.15148599651901        1.57260972138289        3.63140567293802
H            3.72079861816291       -0.33447893278104        3.96972432056189
N           -0.31022206304167        1.93119552126680        0.73018993265670
N            2.30951232235092        0.39952220063751        0.50152318363923
C            4.12096558329271       -0.90401150715561       -0.55936442646581
C            4.67997891527041       -1.90624271812431        2.03035302306157
H            4.96127619429969       -2.21329192016327        3.02590411759942
C            4.90986651498975       -2.02597012693381       -0.34097690644576
C            5.14422122783670       -2.56454597033923        0.91804680153999
H            5.75249391996998       -3.45009229335325        1.01679301951781
C           -2.48054059001828        2.85535420783203       -0.10340926926460
C           -1.08696729321554        5.27149648045816       -0.51930999710933
H           -0.59565992965701        6.23087262223273       -0.56289091489760
C           -2.24211324723608        5.02088518845149       -1.22419408880488
H           -2.64674188853326        5.75260070952555       -1.90553673150364
C           -2.94242638977708        3.85700490502973       -0.95523612494161
H           -3.91170772114575        3.73922476412049       -1.40850982713467
H            5.38881388111841       -2.49905608248571       -1.18106599872379
C           -3.52275621854866        1.86928596402574        0.42114885747719
C           -3.73959448627026        0.71963895429682       -0.56514036942149
H           -4.05835628479950        1.11203542939630       -1.52836007306084
H           -2.83105501620824        0.15587615883705       -0.72314175698584
H           -4.50831348150651        0.04408984413220       -0.19583428120033
C           -3.15624317558485        1.37721481515255        1.82789448142724
H           -3.02855987883032        2.22889677239739        2.49576592790642
H           -3.96175503908745        0.75765942936230        2.21702762359923
H           -2.25039743517105        0.78623483650412        1.84216614924460
C           -4.87166712953338        2.60134604855544        0.59106244426361
H           -4.73893802532560        3.55517077225151        1.09791203324692
H           -5.37074993270248        2.77443922739169       -0.35751248020403
H           -5.53533341041985        1.98425414872055        1.19229865564979
C            4.21917611325903       -0.20330543616768       -1.91418923320083
C            5.64461161325125       -0.39245018309471       -2.47181681939758
H            6.39439374588489       -0.17366936807614       -1.71389852084928
H            5.80555547131901       -1.39863452101448       -2.84751358587821
H            5.79429185486619        0.28828287559546       -3.30649326898659
C            3.23585807098273       -0.79070574629921       -2.93139153707140
H            3.32027361055282       -1.87454104538933       -2.95591720299301
H            2.21495738434321       -0.53048400600043       -2.68189999027490
H            3.45342341142531       -0.39800478145700       -3.92193123990475
C            4.01066192713385        1.31243679803556       -1.77669217373085
H            4.31523906914493        1.80411239509763       -2.69772259759857
H            2.97017489254113        1.56399464587341       -1.61205872662266
H            4.61451683873896        1.71040979792692       -0.96155239167659
