81
 energy: -124.854430069621 gnorm: 0.000667964025 xtb: 6.5.1 (b24c23e)
Si           0.19972998243390        0.40786408578200       -0.68746405903206
O           -0.02302653274476        1.47510645604819        0.51342823469899
C           -1.01271170352780        2.47003583159657        0.63923882546697
C           -0.64348202539308        3.73537587095411       -0.09040054365608
H           -1.96147591712426        2.08770371835309        0.24288769479327
C            0.68015216506320        4.14419251450399       -0.16277676516011
C           -1.63049173007504        4.51458144756617       -0.67820679921392
C            1.01403177336455        5.31368425789817       -0.82186566502756
H            1.44738202717145        3.53094976655095        0.28375550913593
C           -1.29627836539536        5.68708693177319       -1.33060930288883
H           -2.66070465081656        4.19201680702542       -0.63570277582951
C            0.02670614876137        6.08902504935730       -1.40433915419343
H            2.04868613090050        5.61848423743044       -0.88236990581393
H           -2.06960272549969        6.28446979764069       -1.79075812104071
H            0.28770668012175        7.00110186171955       -1.92094686958579
C           -1.17441686531831        2.74765782677694        2.14586242076427
C           -1.62712809918444        1.55569799630296        2.82866665461310
H           -1.89394246718092        3.55793631776115        2.28619534451523
H           -0.20614385735653        3.05368545307634        2.54876512193833
C           -1.99517536662118        0.54074948477118        3.34417384142920
H           -2.31907490355427       -0.33655064316501        3.81827796638141
Cl           1.87991497269036        0.47769106266712       -1.95828665900602
Cl          -0.95623971970463        1.40597205156609       -2.21234976697782
O            1.15229811724523       -0.51810198919408        0.51188730892608
O           -0.96585678140854       -0.83829675480979       -0.83779985947386
C            1.07005387186561       -2.71237001152644       -0.13991798520370
C           -0.28849025885060       -2.76314707893125        0.34950988732245
C           -2.51183684816075       -1.88780450935321        0.59131807193238
C            3.16421730861617       -1.54172930869862       -0.19323879076432
C            3.66398173090667       -2.54114969952234       -1.07754067421752
C            1.64755608761622       -3.82653829527482       -0.76209294727480
C            2.88680855754169       -3.70549224297462       -1.31614717509053
C           -0.57954648882222       -3.76819368307913        1.28531764462303
C           -1.68335529113901       -3.65005422682115        2.07548371538636
C           -2.64401856687786       -2.64007567508789        1.79711771094162
H            1.04652290335393       -4.71116081790793       -0.89860351620011
H            3.29899514425970       -4.48667889269953       -1.93443858101536
H            0.16336738011159       -4.52876775889918        1.46353412327324
H           -1.84417166118279       -4.30846320852350        2.91358811952956
N            1.82326387134802       -1.61304510641681        0.09544554900062
N           -1.24867331877045       -1.86035722620063        0.02764115691423
C           -3.65207136269043       -1.22229470151570        0.08778725689795
C           -3.72897377559322       -2.41939315270502        2.64543181768551
H           -3.80613320864213       -2.98619988085598        3.56080562960684
C           -4.64454683284968       -0.93743679327476        1.02812823630769
C           -4.66517142189728       -1.46673437327185        2.30649692249420
H           -5.45689834958587       -1.20133482296584        2.98980811386821
C            4.04922789066622       -0.56119619729811        0.31782751373422
C            4.91529236245821       -2.37613189770568       -1.67734957928404
H            5.27162595492870       -3.12802277694203       -2.36410160721061
C            5.65121728464777       -1.25102375088116       -1.39946277952326
H            6.58102534321395       -1.06038536319311       -1.91233372687453
C            5.23910589837047       -0.40119996388018       -0.38077440384315
H            5.89817381574530        0.40686283899571       -0.11368965668165
H           -5.46548934164413       -0.30335629846262        0.73488862075768
C            3.87236432807498        0.20793231907187        1.62773133736903
C            3.20016244870131        1.56670199576865        1.40499563581164
H            3.68837531508576        2.09633651244064        0.58929909791792
H            2.15239482833225        1.43728060487717        1.16481818492794
H            3.27761705998638        2.16649337428166        2.31000775686204
C            3.08308373577147       -0.62308034717658        2.65100174772910
H            3.48218534526827       -1.63510803150787        2.70958243204439
H            3.16937123532533       -0.16580774074310        3.63419982951978
H            2.02816329538905       -0.66440893393744        2.40911234306781
C            5.25603949268567        0.46776362662342        2.25665501105808
H            5.86149393923706       -0.43627431091452        2.26219873854560
H            5.79794414786505        1.25383781004805        1.73835583121119
H            5.12421286749500        0.79535576083980        3.28541578468122
C           -4.04035705547251       -0.99327227158044       -1.37410840525923
C           -5.38873140368227       -1.72521041018332       -1.56716078264952
H           -5.28871231294131       -2.77873374786923       -1.31163141586872
H           -6.18484531970284       -1.30200811256773       -0.96282094738354
H           -5.69111183401721       -1.65265168917280       -2.60914334637641
C           -4.23147566251112        0.49434933701543       -1.67989624344871
H           -4.93121831170566        0.95756009141334       -0.98845501117919
H           -3.28159538477539        1.01558840261365       -1.62436398940132
H           -4.61680410561436        0.61258609936969       -2.68950099455561
C           -3.08612871597941       -1.60909655558620       -2.40139219907564
H           -3.59699240048917       -1.68536905462712       -3.35864038013691
H           -2.20919814381571       -0.99299478959709       -2.55172202011495
H           -2.78110435430852       -2.61100050298831       -2.10286533815137
