81
 energy: -124.766262942318 gnorm: 0.000767921580 xtb: 6.5.1 (b24c23e)
Si          -0.27911274121049        0.60726588811281       -0.27466701065013
O            1.96114166952818        1.45073349196290       -0.21532766011128
C            2.19933714544120        2.63839381235104       -0.24675518508429
C            3.51953511186836        3.18968620298917       -0.53233644155801
H            1.40919082645703        3.37682693837854       -0.04943695954078
C            4.56563521829439        2.33910521581656       -0.89853601220570
C            3.74582080442099        4.56336865760464       -0.44031531884919
C            5.81775517539353        2.85627393988051       -1.16241049296348
H            4.36253213285205        1.28165959541441       -0.97975852727257
C            5.00269160972604        5.07369596095083       -0.70192704708619
H            2.93234266641642        5.21762334856780       -0.16379315917513
C            6.03748771316240        4.22242246724685       -1.06118785723157
H            6.62610920296386        2.20027285327189       -1.44949063914890
H            5.18075844559523        6.13630468185307       -0.62995789855875
H            7.01790779461228        4.62628924243013       -1.26681260901842
C            1.17338306868587        2.19008963072636        3.14611602824292
C            0.27371742237310        1.88657612953985        2.26249954543853
H            1.76125791950386        3.09145242004888        3.07229400409570
H            1.36747186245771        1.55817931172156        3.99732088084420
C           -0.59426556082936        1.56700439628400        1.36180178183322
H           -1.61222661318277        1.92128293171587        1.47642382801510
Cl           0.63648567867262       -0.25806177090823       -2.01171082075919
Cl          -0.65799861845219        2.44018438883943       -1.40528566873402
O            0.29240256365819       -0.73527025007909        0.74926407479514
O           -1.86206852248511       -0.01676275424444       -0.61977295412503
C           -0.86098430873655       -2.56020237359101       -0.01191510710824
C           -2.05034902408309       -1.99175529776257        0.61750845304738
C           -3.71201823517687       -0.28243635435127        0.81031546684944
C            1.52098169649493       -2.55090642084074       -0.16789606046897
C            1.42703843403498       -3.49144635331537       -1.23381079068780
C           -0.94085805256921       -3.69207373446495       -0.81819224804510
C            0.16968642066126       -4.07542265773797       -1.52397030530381
C           -2.62908658275635       -2.68893582161249        1.67664715489917
C           -3.52916829665438       -2.04846467019236        2.48912964149150
C           -4.05879558057761       -0.79401690773688        2.09482835636388
H           -1.90273553924818       -4.15427918271458       -0.97227095159335
H            0.10543994796024       -4.82360130495163       -2.29714703775574
H           -2.24691531044219       -3.66814799085106        1.91675175611209
H           -3.85249253682842       -2.48775135874054        3.41835382072483
N            0.33501677426376       -1.99619158450108        0.25197757581390
N           -2.56005271486106       -0.79798370228007        0.24183217008128
C           -4.52878719146685        0.69934229810948        0.21474650108748
C           -4.95470875367979       -0.08293073480649        2.89821060162792
H           -5.19236144104947       -0.45831443654977        3.88124014030134
C           -5.33967579302298        1.42348985255066        1.08910870925768
C           -5.50521929874700        1.08647498254611        2.42330615016014
H           -6.13209839196365        1.69447425786214        3.05737431090304
C            2.78192409872334       -2.25218582389983        0.39040450699391
C            2.58256918993649       -3.84383015494864       -1.93966298109883
H            2.50276540826640       -4.52903720641344       -2.76902186413122
C            3.78927830141172       -3.29829560060368       -1.57469711159832
H            4.67842527147024       -3.49657672799007       -2.15351218088668
C            3.88390052929429       -2.57081880771906       -0.39498188323301
H            4.86534630561157       -2.26719115368297       -0.07012191567391
H           -5.88662231913550        2.27079963974449        0.71013582252412
C            3.02109966771087       -1.78283360845959        1.82441451554483
C            3.28892132194394       -0.27876748109875        1.87774651720680
H            4.14374331191703       -0.02042532018800        1.25666703864872
H            2.42222291057703        0.26659208976130        1.52105656471082
H            3.49943769160328        0.02704426574092        2.90017863332049
C            1.84473825609673       -2.13685128858526        2.74527165376037
H            1.53950002530024       -3.17253528888540        2.60067978283853
H            2.14938395616370       -2.01610966154993        3.78281989235346
H            0.99793960097799       -1.48146899162206        2.58003982687216
C            4.25193856411953       -2.52118302740516        2.38777756348022
H            4.17544806111452       -3.59252884036764        2.21351955273318
H            5.18056086055219       -2.16231697573538        1.95399439097419
H            4.31299084261755       -2.35210315332615        3.46044562334990
C           -4.74486379278429        0.90511768848993       -1.28320751569131
C           -6.26808438998792        0.98176049864340       -1.52353509251704
H           -6.77502324408673        0.13658584478334       -1.06125683704239
H           -6.70264690287668        1.89893814940953       -1.13838843510497
H           -6.46444805503685        0.95598432533473       -2.59274501695505
C           -4.10500216460912        2.20791628091442       -1.76507318023714
H           -4.47342948821903        3.05507015877937       -1.19089241470053
H           -3.02627598145130        2.16801426451469       -1.66320390538000
H           -4.34406654023041        2.37105937712648       -2.81314789349461
C           -4.24285747805726       -0.27372612102740       -2.12660695525217
H           -4.65241196654281       -0.19510724706787       -3.13122583314989
H           -3.16378693133514       -0.27217312151220       -2.21966390840848
H           -4.57066111852622       -1.22192621570945       -1.70099914969581
