61
 energy: -107.993891474221 gnorm: 0.000926237894 xtb: 6.5.1 (b24c23e)
Si           0.09208475013701       -0.26104597905472        0.34309237834250
O            1.18119190769300       -1.34390140604229        0.84714137991142
C            1.74876379916106       -2.51369332911733        0.31047497273807
C            3.18637506574944       -2.25405826824485       -0.06200424149536
H            1.18322465894016       -2.83279295209224       -0.57150676511935
C            3.96445747290174       -1.39549292528904        0.70314145432684
C            3.75332849369110       -2.90254259939445       -1.15174574873594
C            5.29404929355317       -1.18774470913315        0.38095579109372
H            3.51394331948780       -0.87989515626009        1.53670062941131
C            5.08413966883196       -2.69463235089882       -1.47141071785574
H            3.14681947875840       -3.56588234432496       -1.75236987321015
C            5.85722228751140       -1.83799595542123       -0.70437611497118
H            5.89158393421316       -0.51554527293617        0.97854120308066
H            5.51714194433078       -3.19895778657532       -2.32349861121488
H            6.89494522400221       -1.67547292941738       -0.95676266282444
C            1.69679338334610       -3.62574350548852        1.37985558968603
C            0.39878677673061       -4.25944334732902        1.42935106300631
H            2.45587633032796       -4.37745152662327        1.14503016319278
H            1.93409662356471       -3.17591702304656        2.34715707573223
C           -0.67922595234349       -4.77852990540274        1.43044247420658
H           -1.62590677892163       -5.22916513630262        1.44572752084322
Cl           0.76259476449291        0.95576786307900        1.97868253690494
Cl          -0.69244532220903       -1.51694898316929       -1.27361490543980
O            0.29445597654733        0.95696336796623       -0.85359323273205
O           -1.49357965524510        0.15910337644773        0.87360779478498
C           -1.37120670923460        2.54059243264433       -0.49954850869073
C           -2.41513716282703        1.56947127219258       -0.71602404991420
C           -3.44888127644195       -0.54031377772240       -0.21797024036338
C            0.94477246590443        3.13251425456723       -0.27728352880252
C            0.58180916810126        4.44897353107043        0.10525434700868
C           -1.73159839917361        3.88000576284194       -0.26236259639891
C           -0.79350610014526        4.80598251486319        0.07726568844609
C           -3.46145241042035        1.86828026375790       -1.60817253294921
C           -4.43083157199140        0.95197660430933       -1.87972150459447
C           -4.44749568443187       -0.29324030740794       -1.19433491070735
H           -2.78093218377680        4.12876085135207       -0.26472968494645
H           -1.07711726709261        5.81283237295660        0.33897510455776
H           -3.42568564309895        2.81046036437390       -2.13157918064242
H           -5.19248289384250        1.15122015341972       -2.61670645926631
N           -0.04698170915668        2.23251452196091       -0.53997619427657
N           -2.46734971739110        0.39005243849898       -0.04106688922229
C           -3.51539565121333       -1.71945595740908        0.55581978332622
C           -5.42934476216512       -1.25832300549756       -1.43971584379262
H           -6.17192975873708       -1.06150294300347       -2.19763118089435
C           -4.51273940159093       -2.65081589550930        0.27695430235874
C           -5.44880282961277       -2.43468780488167       -0.72208513502183
H           -6.20222572746464       -3.18093545080315       -0.92204687378311
C            2.31152185077739        2.80403806952145       -0.40320882233459
C            1.57573677634416        5.36272409301626        0.46881917940096
H            1.28104011731374        6.35457655608696        0.77529455141433
C            2.90522355561138        5.00127432494573        0.43258872308824
H            3.66784867831111        5.70378077912930        0.73134963864202
C            3.26717726295124        3.74353164962013       -0.02340011515009
H            4.30841739558858        3.47130622386060       -0.10413968491554
H           -4.54703187596072       -3.55315884448493        0.86803166226108
C           -2.64897748797163       -1.99121120582982        1.63742032986464
C            2.77458832557835        1.59684542958122       -0.97226069819855
C            3.29275491284935        0.66224870328916       -1.52145561311249
H            3.68233017171034       -0.19536374854958       -1.98228747331951
C           -2.00439109436946       -2.32330300111791        2.59556401573429
H           -1.39021380819068       -2.55197844155324        3.41358924151095
