61
 energy: -108.001054212716 gnorm: 0.000977952403 xtb: 6.5.1 (b24c23e)
Si           0.19148943387239       -0.94726631576977       -0.13197377343379
O            1.29549698954941        0.02274788763683        0.58796939351691
C            2.25403798964494       -0.27421705027172        1.57855433071511
C            3.29280211000416       -1.24449555992895        1.07914391165727
H            1.74202377719315       -0.70717788043474        2.44582846212993
C            3.78451022176040       -1.13750432014578       -0.21366360755643
C            3.77047998893534       -2.24801810416741        1.91044574432768
C            4.73523148508818       -2.03015563596140       -0.67447218488913
H            3.40148580433006       -0.37072896121873       -0.86957852819660
C            4.72789003506179       -3.13411170118849        1.45134576912155
H            3.37719101923077       -2.34354723608827        2.91159385046797
C            5.21132901391736       -3.02794022708335        0.15794098486302
H            5.10012566747287       -1.94600930465172       -1.68756013956960
H            5.08964995883139       -3.91670173435875        2.10206340594419
H            5.95197525077804       -3.72690765587925       -0.20232004254851
C            2.92255830463734        1.05221199885666        1.98765487313506
C            1.98500262739451        1.91730907640577        2.66744509881665
H            3.76201247940610        0.82905650292735        2.65124254659818
H            3.30371303240424        1.54820074927703        1.09092460675231
C            1.16987185140963        2.59351804525185        3.22477793811439
H            0.47894922905688        3.19507646246541        3.73522749827396
Cl           0.66802356891726       -2.07588630874406       -1.76413592015869
Cl           0.29476758310866       -2.53703797890883        1.29884189378901
O           -1.43491861363318       -0.84601523291018        0.37505956036358
O           -0.12903452687213        0.43116182255706       -1.31030406558701
C           -2.42591968814608        1.25880502566038       -0.08268439108637
C           -1.21831413351908        2.02325482553186       -0.04279921220692
C            1.00046870457567        2.41955679921758       -0.84626771212259
C           -3.62818957874821       -0.80117536543532       -0.42448210721209
C           -4.84971323275077       -0.08371588474133       -0.51632493912507
C           -3.64954727488294        1.96354282446618       -0.12437504055051
C           -4.83067842399342        1.32475781743862       -0.31868606802184
C           -1.16731853593922        3.24215959934434        0.67309987800277
C           -0.04252987327941        3.99929228309933        0.68696646072921
C            1.08273254791331        3.61505644809684       -0.09103206044231
H           -3.61698997166119        3.03883884775208       -0.06197577473892
H           -5.75933349523423        1.87085693494506       -0.36497046301270
H           -2.01935651394627        3.51460389203799        1.27422620750735
H            0.01959789027763        4.89689104181928        1.28122960944649
N           -2.47245444128427       -0.10937391396678       -0.13609318988453
N           -0.12189674322266        1.64944260800340       -0.74946041664506
C            2.07873936584126        2.06919851762497       -1.69200745746957
C            2.25380463401495        4.37819017306540       -0.11756334416552
H            2.30119827849241        5.27453365186753        0.48115002257598
C            3.22683695479612        2.85651082262423       -1.68573782069100
C            3.32509213463427        3.98987808004048       -0.89200542395759
H            4.23298681522913        4.57305648091636       -0.89938014458417
C           -3.65689211299158       -2.19921197309689       -0.62000770680225
C           -6.04625370302322       -0.75279304852826       -0.78675243577402
H           -6.95697991044107       -0.17682839633308       -0.84893629115207
C           -6.06113004486180       -2.11943044649544       -0.96459487490784
H           -6.98722037112929       -2.63494078994513       -1.16781322984518
C           -4.87556206048748       -2.82788935613283       -0.88370948554651
H           -4.86779764409663       -3.89726590686997       -1.02932332743240
H            4.04736964040467        2.56740621754760       -2.32537113015702
C            2.04206785331845        0.97616391447995       -2.58533772593006
C           -2.52270540542599       -3.03896142019067       -0.60150393806362
C           -1.67897523587816       -3.89311506746258       -0.65029707713658
H           -0.86395546261266       -4.55371163672846       -0.65764525322018
C            2.13850391505770        0.10712666494912       -3.41017978637503
H            2.14054484150466       -0.70505860226002       -4.07333495665436
