61
 energy: -107.904196835954 gnorm: 0.000871532721 xtb: 6.5.1 (b24c23e)
Si          -0.81133062061994        1.36250045859619        0.38407225845841
O            1.25377327992948        0.49287105829493       -1.04482993755867
C            2.35091333113781        0.97082794657784       -0.84455971788980
C            3.58397693407765        0.49549510466606       -1.46190001804305
H            2.47624789689196        1.80099538866460       -0.13156424581075
C            3.54414999096164       -0.45470762639235       -2.48488267993763
C            4.81628406887387        0.95806394424828       -0.99875107561526
C            4.71738040965223       -0.93352098495336       -3.03072860662569
H            2.58122589361337       -0.79625344416561       -2.83431770092532
C            5.98701838852734        0.46865952341946       -1.54378467133027
H            4.84278819735159        1.69212968362660       -0.20671558961020
C            5.93907021342845       -0.47594692423829       -2.55812956547581
H            4.68661354668244       -1.66430878577747       -3.82530862580093
H            6.94105349712379        0.82291291830355       -1.18259095918251
H            6.85678385309758       -0.85408375511151       -2.98396320811659
C            1.60663156662886        4.56867652065576        0.48164672246562
C            1.01823892912387        3.51023799801864        0.94521788134815
H            2.58995568772246        4.53676456048045        0.04054975969212
H            1.12388702233492        5.53122470459967        0.50766148414477
C            0.41458755255985        2.45411126767100        1.38227448314936
H            0.53719530129132        2.17012019056118        2.41681790254366
Cl          -2.44592531427098        1.65871122867927        1.67068485365683
Cl          -0.75978791831729        2.63126587015041       -1.29559269138422
O           -1.72105492983773        0.32796658343172       -0.73888082716996
O           -0.24665271184111       -0.12542712881064        1.26814040511312
C           -1.72999391422064       -1.92832399585947       -0.20584824293777
C           -0.29590039304334       -1.97574719800973       -0.14138875712319
C            1.73209500207445       -1.32086036963920        0.92965540642785
C           -3.78702007640078       -0.71571475596879       -0.32527233478939
C           -4.50128689415460       -1.89926697656372        0.00520047922555
C           -2.43915376444696       -3.13490108215688       -0.04650116519608
C           -3.78926376824902       -3.12484690692665        0.10256262947854
C            0.40452028261740       -2.96303641044877       -0.85597694511422
C            1.76201510255642       -3.03814428529660       -0.79973359186766
C            2.47164553412825       -2.22064613676850        0.12183360224008
H           -1.87219982175428       -4.04708403308400        0.04991090146519
H           -4.33605581156683       -4.03202375576264        0.30509550674742
H           -0.15949128392404       -3.60089019865034       -1.51812033679356
H            2.31278018002237       -3.72514821077603       -1.42182873197395
N           -2.41850371453137       -0.77500989507757       -0.38915242353965
N            0.40101281812997       -1.13423233752459        0.67034806759965
C            2.39310162680974       -0.65015879218719        1.98115152568840
C            3.85853184741027       -2.30373901300822        0.27036006241831
H            4.40886924868205       -2.97581445893005       -0.36981456876478
C            3.78050528999712       -0.75454834199013        2.08969124736008
C            4.51194159269787       -1.54335556595460        1.21936326685392
H            5.58564395276488       -1.59622056785086        1.31150996916762
C           -4.52503791143325        0.45947623365932       -0.59520739387271
C           -5.88701458800113       -1.85753708618558        0.18815384073000
H           -6.40002870188774       -2.76852237455399        0.45633375653765
C           -6.57996779479267       -0.67912078329886        0.02129361581627
H           -7.64666760878392       -0.64478080191537        0.18040679963275
C           -5.90397758112666        0.45662651599736       -0.39261599145917
H           -6.44226782493381        1.37300669570445       -0.57992476038798
H            4.27164774427464       -0.21988308897148        2.88849851843867
C            1.69765041208983        0.01297273986450        3.01474119106734
C           -3.97601507476789        1.64672502927619       -1.12329252910740
C           -3.70503340536793        2.70163776004139       -1.63161329301699
H           -3.34115236530695        3.59318324179491       -2.04638939324371
C            1.20825190405984        0.49706619091507        4.00055717347206
H            0.71784469424208        0.94450371495082        4.81291826871940
