61
 energy: -107.995474745529 gnorm: 0.000600883871 xtb: 6.5.1 (b24c23e)
Si          -0.47421436132053        0.70810438837393        1.25364344880762
O            0.07417569425138        2.06238155795583        0.52971311741539
C            0.15850370872620        2.43500482251475       -0.82695889771551
C            1.18975258037371        1.60610863998360       -1.54873144506641
H           -0.82145510728481        2.29406377059565       -1.29468842469044
C            2.49103781328334        1.54818139664989       -1.06423787212663
C            0.86351883908288        0.90337407524220       -2.69979321575005
C            3.45947944991009        0.83380788106731       -1.74528904756679
H            2.73860780243665        2.06099084329174       -0.14646061462462
C            1.82836161375700        0.17029655927140       -3.36935388144920
H           -0.15112544766196        0.93390851789984       -3.07028497387413
C            3.13073336278530        0.14616129168830       -2.90148341506346
H            4.47277316975410        0.81203288109537       -1.37242473424466
H            1.56430251346938       -0.37576606682129       -4.26354686475875
H            3.88807866209644       -0.41049510590041       -3.43341049807454
C            0.56128968100742        3.92176079712611       -0.88710317991278
C           -0.47199852858362        4.79784285555793       -0.38084707121927
H            0.78413844480193        4.18213203025584       -1.92620443323191
H            1.46099240147333        4.06195704319182       -0.28385543732949
C           -1.32337552462312        5.52932862750344        0.03550783221878
H           -2.06419128646977        6.16937090728072        0.41359460762099
Cl           0.11504553693105        1.54563058075511        3.07753462366801
Cl          -2.24926362227026       -0.04012140089171        2.15491952089069
O           -1.10717776073688        0.14276713542892       -0.36167935094537
O            0.63047725719200       -0.60403208300246        1.37665243389345
C           -0.98546445158286       -2.14390892150706       -0.48490228330055
C            0.45072330644379       -2.08862578496137       -0.46920647842841
C            2.58889653230010       -1.39801038000435        0.37724367999697
C           -3.11612173528467       -1.05316120423806       -0.57584512436186
C           -3.76416176869879       -2.31017276470364       -0.69169137235443
C           -1.61768714336912       -3.39610332699941       -0.63418334607214
C           -2.97045633366601       -3.48804812147755       -0.70656194855115
C            1.10737121172308       -2.90037299105191       -1.41788957822550
C            2.45751015281972       -2.89419474473346       -1.55001435881031
C            3.24503378555041       -2.13845986552320       -0.64140943787033
H           -1.00267530575237       -4.28139391209831       -0.61739266974623
H           -3.46069265499626       -4.44676133671785       -0.76678343622536
H            0.49389583510764       -3.47023202398833       -2.09679513196864
H            2.94700379096964       -3.46195464487447       -2.32445525121038
N           -1.75319732013555       -1.02766195317911       -0.47267321668405
N            1.21237484469894       -1.33736152668954        0.38135200777454
C            3.38803488372963       -0.78071047646036        1.36444731472530
C            4.63916590871129       -2.15477371679656       -0.72245972169414
H            5.10243778408574       -2.72144849801532       -1.51541028234930
C            4.77944206392957       -0.81209870136063        1.23983647793732
C            5.40501230314740       -1.47135694693046        0.19821633754681
H            6.48175406389669       -1.47474325280075        0.12651430160748
C           -3.90455140210901        0.11981230416836       -0.59001975067865
C           -5.15797608704616       -2.37463655653009       -0.78971493292326
H           -5.62586550193887       -3.34412073343718       -0.86669880345766
C           -5.91454865322316       -1.22446439271388       -0.78821244619998
H           -6.98981249394095       -1.27739351681858       -0.85964355157324
C           -5.28800867870231        0.00846817028274       -0.69570473311422
H           -5.87103210861462        0.91679225482564       -0.69692403259729
H            5.36244723192240       -0.31726507940853        2.00166252910753
C            2.89209140616589       -0.18731503412081        2.54385366380660
C           -3.38231892526501        1.42788656099915       -0.49301495563840
C           -3.10657366119392        2.59500014075752       -0.41117317957645
H           -2.75970056992406        3.58187313847212       -0.31286252678389
C            2.67107251350134        0.27726137452770        3.63037742798995
H            2.35067128434130        0.70332351800083        4.53307858301305
