61
 energy: -107.995821674127 gnorm: 0.000896603822 xtb: 6.5.1 (b24c23e)
Si          -0.56643492127781        0.33625743295186        1.05976592469218
O            0.10892614777061        1.72587149669043        0.56731705342974
C            1.30138922636408        2.34520327603720        0.97386977692153
C            2.46444258957104        1.82404584075121        0.16504116225142
H            1.47056086757381        2.15374949333352        2.04136410933689
C            2.25377120821691        1.33545978408233       -1.11724769065668
C            3.75577523159713        1.86771226905692        0.67297586398979
C            3.31968637400644        0.89817217120617       -1.88358980908756
H            1.24490675127669        1.29912421369946       -1.50134968616915
C            4.82138077594537        1.43841821203684       -0.09709693196689
H            3.92172187923260        2.23600856896855        1.67465345716962
C            4.60644967237492        0.95525554015869       -1.37744172149054
H            3.14645107931791        0.51593384559029       -2.87962488568457
H            5.82380955674770        1.47911395844286        0.30313984307265
H            5.43982603539845        0.62170282657857       -1.97812027379806
C            1.16409218131757        3.86198605293611        0.73614011105512
C            0.12319789261955        4.42746071813791        1.56646958937791
H            2.11949608615742        4.34344429183303        0.96088872725759
H            0.92570356131520        4.02281258866364       -0.31914330397098
C           -0.75417413103773        4.86788102578730        2.25078681474236
H           -1.51844535664388        5.26298705983535        2.85094207985808
Cl           0.13608146426066        0.36120497173871        3.07200095149146
Cl          -2.52882105872523        0.05690744737394        1.77835656403015
O           -1.19113820132155        0.27176429845451       -0.63810829585655
O            0.31175686432868       -1.12880226771374        0.84842408463379
C           -1.65719731586213       -1.91293008344791       -1.14358368035098
C           -0.24877980064770       -2.19063645086721       -1.20085044815766
C            2.04057340047020       -1.94732065060051       -0.50638348607490
C           -3.42571110063777       -0.30048575547910       -1.06171498017024
C           -4.37661835501397       -1.31597765404475       -1.33873307981559
C           -2.59069166777769       -2.92820412430890       -1.43936083613879
C           -3.91899206199191       -2.65155213530031       -1.49987551409121
C            0.17944650229039       -2.96353525903989       -2.29991698730064
C            1.49750019308693       -3.12558436753083       -2.58080324971864
C            2.47412069368814       -2.59700997742823       -1.69397889875380
H           -2.22792889563170       -3.93747736972124       -1.55023214171645
H           -4.64235146055310       -3.43286612695632       -1.67169740407267
H           -0.57487020114026       -3.34180827690730       -2.97066988086445
H            1.82076451679336       -3.65102052420343       -3.46487450236387
N           -2.11125584128834       -0.65124096184853       -0.95106677082302
N            0.69287408866660       -1.72074568376806       -0.32699827848690
C            3.02169236603023       -1.59532035076834        0.44493934628993
C            3.83512579286401       -2.76381451740517       -1.95894450237013
H            4.12459986005996       -3.24724734393661       -2.87949541932188
C            4.37247378192800       -1.78815344737438        0.14393304305635
C            4.78428921812585       -2.34197316141952       -1.05305405858812
H            5.83539148474647       -2.47029395672627       -1.25937719914090
C           -3.86672716895730        1.03712663391490       -0.93550420769898
C           -5.73264103977603       -0.99035600918854       -1.45014313205823
H           -6.43998047973636       -1.78074245519339       -1.64945203469860
C           -6.15220638653147        0.31346166642995       -1.31101770376184
H           -7.19905939143434        0.56121137969970       -1.39542609070543
C           -5.22408173920728        1.31441802946883       -1.06461121001969
H           -5.54524055521001        2.33972432361216       -0.96143903600082
H            5.09632254019822       -1.50194302586509        0.89105510869100
C            2.76427020642552       -1.11550454349165        1.74636682851934
C           -3.00835523749830        2.12705021287505       -0.67161705379678
C           -2.41572500870258        3.14487370857996       -0.43364713252662
H           -1.82383171849542        3.97330500187341       -0.18222484365953
C            2.79067580024371       -0.79144263608108        2.90401509038980
H            2.66769220412144       -0.47348822416685        3.89574683171914
