61
 energy: -107.993343298586 gnorm: 0.000723524744 xtb: 6.5.1 (b24c23e)
Si           0.46127225054085       -0.12008895737625        0.58418054867785
O            0.95463978679922       -1.10212558316701       -0.59916812776122
C            1.39262030395136       -2.43527471425484       -0.52028171574721
C            2.80600756920655       -2.53954113075905       -0.00602450078607
H            0.72402086493517       -2.98950371708234        0.14952307102884
C            3.70138045576132       -1.49376513557204       -0.17466935772859
C            3.22493584034419       -3.69827846584518        0.63445448149937
C            4.99594281020608       -1.60042907261507        0.30182285298111
H            3.37089585034830       -0.58912902810317       -0.66259130588934
C            4.52114268315268       -3.80702949025805        1.10279845465512
H            2.52742023297190       -4.51154285704236        0.77519946068316
C            5.40925171395800       -2.75693827533130        0.93933814168432
H            5.68122199462118       -0.77469980860147        0.17715015015061
H            4.83723948018628       -4.70963954849524        1.60506143158885
H            6.41900709262665       -2.83864989597610        1.31397080821305
C            1.28485497685703       -3.03391021235541       -1.93559094530113
C           -0.09130891249778       -3.03846347471610       -2.38208564929852
H            1.67804343603827       -4.05360239965616       -1.92367620408460
H            1.88580050402832       -2.42852882608454       -2.61759291490664
C           -1.24014978794106       -3.01698116277803       -2.71596714457577
H           -2.24134840281724       -3.00875934361763       -3.02864002550360
Cl           1.79858093286217        1.23882438187974        1.48836079844137
Cl           0.64564119422283       -1.40826110626809        2.28010378714627
O            0.14746151499704        1.07375286533293       -0.74325941682495
O           -1.21576892734996       -0.13125175873240        0.96401226217187
C           -1.31096347747503        2.62791045357073        0.13589994635889
C           -2.38322078173196        1.68733109842833        0.01351498964127
C           -3.20493501211941       -0.56048098325030       -0.20628896816892
C            0.91419253481400        3.26270292159853       -0.47082814232511
C            0.72271933870563        4.54389591075233        0.10363196680306
C           -1.53200805979724        3.91629515871116        0.66842660514816
C           -0.53275629492863        4.83525356442603        0.70275027230241
C           -3.62878081550710        2.18274209090864       -0.42667257290896
C           -4.60436118708070        1.34131078616220       -0.85312400861840
C           -4.39003100206980       -0.06483066288038       -0.81577641777220
H           -2.49057870562343        4.12367127179465        1.11625507543201
H           -0.67612299289061        5.79523381662314        1.17287252313079
H           -3.74775947147096        3.25084413785000       -0.50905653964876
H           -5.53384361236533        1.71778644891963       -1.24928388865667
N           -0.08589964320415        2.34017195799109       -0.37133373328598
N           -2.24902717009556        0.33869956764310        0.19894015898771
C           -3.08231674296187       -1.95668775901548       -0.03428987923843
C           -5.34246992874870       -0.94463832297903       -1.33447692549810
H           -6.22480772186618       -0.53398607198693       -1.80087512026215
C           -4.05367399882093       -2.80094536194648       -0.57858757741006
C           -5.16177618365763       -2.30892871164577       -1.24323102740217
H           -5.89148943706009       -2.98734513090543       -1.65779345000412
C            2.12058963455605        2.98734612493229       -1.15409951502263
C            1.75859533381621        5.48341761756976        0.06513452653297
H            1.60027232673339        6.44778501739356        0.52298792504649
C            2.95384542957756        5.18168237903517       -0.54825882496785
H            3.75486124423095        5.90451149621236       -0.56542418023120
C            3.12228889798725        3.95183927140496       -1.16838531155254
H            4.04332257711103        3.72510973376262       -1.68364928189532
H           -3.91991994063360       -3.86464359142776       -0.45239021709301
C           -2.07804222451856       -2.60206093536694        0.71818033408392
C            2.34479916825359        1.79819997312183       -1.88191626610268
C            2.64858197731178        0.87190969965082       -2.58462664960694
H            2.84984700052850        0.02597733762993       -3.17082993238725
C           -1.39981602922674       -3.34622120172405        1.37573636367657
H           -0.73674748775990       -3.87946238546998        1.98982080242663
