61
 energy: -107.995801797198 gnorm: 0.000891588740 xtb: 6.5.1 (b24c23e)
Si          -0.51879609304108        0.73059139689753        0.91228935093370
O            0.09196555409101        1.81560120534954       -0.12704966943102
C            1.28061327303888        2.56005249316013       -0.06338408509867
C            2.42162101023138        1.77887606784728       -0.66859520106044
H            1.50697525588252        2.80424385637687        0.98243628304315
C            2.16973822489237        0.82680846110019       -1.64705329840751
C            3.73231958381329        2.03273591470020       -0.28775122500470
C            3.21395169968780        0.13959281975537       -2.24026494509250
H            1.14642835828954        0.63073165565657       -1.93178720224693
C            4.77579932732145        1.35094095946306       -0.88696216331030
H            3.93091487883935        2.76410948271702        0.48180512151223
C            4.51954957811887        0.40526386821863       -1.86611206476035
H            3.00893052349160       -0.60243231140824       -2.99889764514257
H            5.79325791987948        1.55670719975021       -0.58834971688741
H            5.33560355270501       -0.12503766810832       -2.33450539324448
C            1.07994483980080        3.86114956904480       -0.86524644450427
C            0.07413028630822        4.70092335565094       -0.25227935323867
H            2.03096151958452        4.39817293381600       -0.91290072901076
H            0.77275443495841        3.59375992218457       -1.88023304089747
C           -0.77320834291055        5.36891806420820        0.26524145431860
H           -1.51082565781184        5.96021873764549        0.71930181673947
Cl           0.30324401068242        1.54093883937951        2.70428736397637
Cl          -2.42428012459456        0.74398336423044        1.81575910718055
O           -1.24819940690018        0.01402299710068       -0.58042571053835
O            0.38330932426038       -0.70162084620363        1.22690555307969
C           -1.67419971067392       -2.19901061229755       -0.17431235950975
C           -0.26328744916511       -2.46777728889000       -0.22177246572199
C            2.05407421684226       -1.96860909608098        0.17820049999115
C           -3.48589640768871       -0.69086420498685       -0.59267454660601
C           -4.41792768342644       -1.74072378964759       -0.38903893247034
C           -2.58933024156778       -3.25608430197228        0.00895687620033
C           -3.92749400690363       -3.03216945074143       -0.05637229656535
C            0.12137421159594       -3.59374966995739       -0.97787573889821
C            1.42481674474657       -3.84047589033355       -1.26633668869109
C            2.43590420777191       -3.01410354114783       -0.70572994019347
H           -2.20003665815385       -4.22798587537635        0.26659537441658
H           -4.63388024288876       -3.82365023469248        0.13802317344898
H           -0.66018194385343       -4.20075100094708       -1.40535289810915
H            1.71062099551216       -4.65572587551000       -1.91110349716583
N           -2.15623789371544       -0.96317650493739       -0.44834683560649
N            0.71329272052960       -1.69652361928584        0.34501914434734
C            3.07782433164932       -1.28265299755307        0.86582227543516
C            3.78369772470747       -3.26284820594483       -0.97432199571652
H            4.03314310489143       -4.05442056970510       -1.66427397152658
C            4.41389820205106       -1.56969917939271        0.57482446648396
C            4.77118948420727       -2.52973083519610       -0.35238571083209
H            5.81189083610695       -2.72261700615433       -0.56119619702801
C           -3.96209307104316        0.58824612179345       -0.96189186247019
C           -5.78825448504219       -1.49223410526417       -0.52183848982573
H           -6.48016838360200       -2.30251299998572       -0.35025891982362
C           -6.24110256594275       -0.23929212981172       -0.86853118893113
H           -7.29874013291872       -0.05061408770091       -0.96899162542153
C           -5.33317385645475        0.78497361404777       -1.09339384806605
H           -5.68114691617703        1.76783477310315       -1.37237979759286
H            5.17142056792360       -1.02276297200162        1.11431053817581
C            2.87988571065980       -0.35366036995909        1.90865072169299
C           -3.12435119943027        1.70054139054527       -1.19660690025327
C           -2.55200772409359        2.73425298781093       -1.41483988133273
H           -1.97130413017812        3.59809204746433       -1.54498294954034
C            2.95894274951616        0.37872568451603        2.85843895177173
H            2.87909436358508        1.04243145765287        3.66641935303378
