61
 energy: -107.992341209464 gnorm: 0.000962952272 xtb: 6.5.1 (b24c23e)
Si          -0.00297188189613       -0.60993204118608       -0.11204959556197
O            0.88893316682292       -1.94260343957180        0.12318496794410
C            1.89397944511097       -2.26696827913793        1.06060713056895
C            3.19800551966940       -1.58595016928197        0.72944603682895
H            1.55924774884260       -1.96711655299608        2.06018409459387
C            3.70657841868772       -1.67402573212063       -0.55889417953520
C            3.91004464117138       -0.88956798977789        1.69530347555847
C            4.91036278124697       -1.07311524898396       -0.87870000695963
H            3.14233947463293       -2.20801412899433       -1.30842697853098
C            5.10982520337715       -0.28130470657871        1.37263505980421
H            3.51589068230513       -0.80990785812005        2.69734378546934
C            5.61314677643969       -0.37343427573347        0.08649327214492
H            5.30313529283615       -1.14965223700283       -1.88198019793512
H            5.65195891854273        0.26820481125319        2.12819333446493
H            6.55190935823744        0.09969799851959       -0.16342032454324
C            2.10185646516275       -3.79280636434485        1.01565205624909
C            0.95204583131555       -4.53179237516195        1.48666432478144
H            2.97394884132718       -4.04065405382432        1.62800937701008
H            2.30260828128843       -4.08090228236961       -0.01879245435203
C            0.00622548752400       -5.15555747950947        1.87124233147522
H           -0.83070074004535       -5.69694088362780        2.19799406977393
Cl           1.05840827297517        0.57032741889714        1.42041572189074
Cl          -0.99763915949609       -1.70089014134134       -1.65037106898061
O            0.05872729407680        0.68969416370131       -1.24702949205695
O           -1.43508464698183       -0.15101971690227        0.72053878347246
C           -1.34982330098540        2.35561679609863       -0.45797065960446
C           -2.49081905875761        1.47839058126526       -0.55377205956647
C           -3.56361968019376       -0.62859793911816       -0.13347826628331
C            1.00025984868617        2.76791305291001       -0.71689364803998
C            0.84985092322585        4.05868000525258       -0.15074892040905
C           -1.53009866378773        3.68408036360201       -0.03118677324393
C           -0.46131627262666        4.50382821803968        0.17059561558733
C           -3.65040987270187        1.93539383694490       -1.20592989190532
C           -4.70519020387411        1.10160979776916       -1.41971152485581
C           -4.68171480649878       -0.22360246804476       -0.90640065256901
H           -2.52890607054847        4.00230741518667        0.22214228760929
H           -0.59052617052208        5.49271477112120        0.58094466346451
H           -3.64268049909653        2.93589143954022       -1.60835817406789
H           -5.56373201062662        1.42678419865205       -1.98536462982762
N           -0.09652399721031        1.96281286759925       -0.80780344540518
N           -2.51339807086827        0.23315056051859       -0.00676407032926
C           -3.58497828215574       -1.88823278465259        0.50337036840008
C           -5.73692346334788       -1.11660189971634       -1.11713326424089
H           -6.57242055657312       -0.79861038669091       -1.72158618791825
C           -4.65432836193722       -2.74668055453653        0.26029064710852
C           -5.70914050967579       -2.37640465621499       -0.55908953838416
H           -6.51828317582907       -3.06771260066758       -0.73736520149560
C            2.26668196172896        2.36256670868505       -1.19113800379470
C            1.97988436944797        4.85795235578313        0.04902199986583
H            1.85428983487708        5.83103560391653        0.49850016707313
C            3.22920616784165        4.40906164485754       -0.32286291083267
H            4.10025316539420        5.02131967692559       -0.14695990239501
C            3.36566410008040        3.18543265498743       -0.96050775701647
H            4.33318712642327        2.85203933053696       -1.30341190476402
H           -4.64865806676950       -3.71528117559813        0.73606504404859
C           -2.60649557767243       -2.30687361814430        1.43217585615733
C            2.45705544403967        1.20184126571867       -1.97245440610799
C            2.70755432714465        0.30216620998836       -2.72801033824669
H            2.85477845088810       -0.51490162372608       -3.36825533621444
C           -1.88483105296957       -2.73270304049725        2.29300991672341
H           -1.19561146778286       -3.06146804407148        3.01127037785954
