59
 energy: -108.593543037361 gnorm: 0.000583914094 xtb: 6.5.1 (b24c23e)
Si           0.18267823754707       -0.66724539060004       -0.68789617968604
O            1.50115102126718       -0.09026726822868        0.07121832606200
C            2.34331600392802       -0.71515232244229        1.01651550783264
C            3.25479582651103       -1.75116899908382        0.41055135600953
H            1.71798571956162       -1.18645392625378        1.78458079772423
C            3.67646292186733       -1.65712146285096       -0.90705085941683
C            3.70948842665231       -2.80065610833617        1.19923168851521
C            4.53591402929615       -2.60661076155747       -1.43188332539003
H            3.31762126339046       -0.85108121069742       -1.52938824669929
C            4.57375634541210       -3.74354259652330        0.67508718621783
H            3.37130234484894       -2.88455080792821        2.22220257552608
C            4.98923751840798       -3.64851122559922       -0.64266574687320
H            4.84881108488934       -2.52860527282856       -2.46230198057856
H            4.91695600770904       -4.55939859955056        1.29419301863521
H            5.65914981679079       -4.38942772034011       -1.05398291492740
C            3.18663197006418        0.40169407122546        1.66372496075691
C            2.33475775126985        1.37006917751816        2.31769678428467
H            3.86635692071522       -0.04582101614362        2.39270395748730
H            3.77597351540484        0.89125074956852        0.88373374538353
C            1.58249329884725        2.14340563251521        2.83556207572199
H            0.94397765411899        2.82211668452689        3.31689298077663
Cl          -0.39023445348481       -1.17412430170215       -2.61074699915305
Cl           0.39060151860515       -2.70684261068801       -0.10975234175513
O           -1.16320992032970       -0.37345520483790        0.38471105008147
O           -0.04690970047310        1.03641329601562       -1.37859081762141
C           -2.52015263319822        1.36802901091162       -0.39687614042197
C           -1.48063602511068        2.32434840506951       -0.12370898437334
C            0.81125824912991        2.94430252060318       -0.33311924846690
C           -3.29549204778017       -0.89166371994739       -0.38222538516124
C           -4.44106405140017       -0.52760767644475       -1.13055817374708
C           -3.74048523091346        1.77390781217091       -0.96466822181350
C           -4.64910540728697        0.85380186208810       -1.39678852975141
C           -1.75086007704945        3.51724715487367        0.56754912776057
C           -0.73977178161205        4.36900300037654        0.89636743276037
C            0.58718099445579        4.09356944080005        0.46783189343719
H           -3.88733194698132        2.82718518126908       -1.14337106569463
H           -5.53510999431140        1.15664876929502       -1.93085249388939
H           -2.76391560231502        3.69936937842195        0.88970736313116
H           -0.92691346515810        5.25628574156403        1.48021800013004
N           -2.33912360376238        0.04758630165640       -0.13646794541547
N           -0.22005129826546        2.09423851945063       -0.57437550752469
C            2.08842268733694        2.73660750380389       -0.89284457089485
C            1.66161419332878        4.93380407098398        0.77762846403326
H            1.48275448309812        5.79577529640798        1.40194643104134
C            3.13136567287599        3.59933063972418       -0.56203149907995
C            2.92478748601097        4.67463009971829        0.28758647418563
H            3.74925270222226        5.32216065059743        0.54101436761528
C           -3.18730555306396       -2.20119209190816        0.12753302352606
C           -5.33707774707335       -1.52666863963161       -1.52489219654591
H           -6.19274304719165       -1.25037856813235       -2.12131005456172
C           -5.13695544199754       -2.83998118637200       -1.14824944281910
H           -5.81886532488894       -3.60718272504147       -1.47952826437007
C           -4.09991637641400       -3.16843870931746       -0.28796123262934
H           -3.99616836367992       -4.17373210434796        0.09000044977744
H            4.10618720741043        3.42073876801475       -0.99078794347772
C            2.37533439377735        1.72690475554079       -1.83722203602806
C           -2.33210591356462       -2.51466524047202        1.21089978871320
N            2.75009939605884        1.00274705001065       -2.64452640178011
N           -1.82429865554102       -2.78792707709193        2.20162192346434
