59
 energy: -108.587805135883 gnorm: 0.000649900770 xtb: 6.5.1 (b24c23e)
Si           0.24633669898107       -1.10197555133825        0.75514235039765
O           -1.31722563530344       -1.19758738392704        0.32091338843786
C           -2.12774529475781       -1.62263299042661       -0.76291474645215
C           -1.79943660611454       -0.75776787580439       -1.95602661466695
H           -3.14960008475109       -1.39138006203536       -0.42183921692306
C           -0.61322436798725       -0.92419465773747       -2.65980659579810
C           -2.64188326565036        0.29641699298433       -2.28819616084644
C           -0.27293671367639       -0.03878382114141       -3.66726465417226
H            0.06462931836007       -1.72494158526831       -2.41210094634089
C           -2.30185644485640        1.17854092211011       -3.29843374379413
H           -3.57177396939540        0.42692907184605       -1.75059346819568
C           -1.11097419458608        1.01647710018117       -3.98570348898306
H            0.65710859441516       -0.17765145017910       -4.19718868354927
H           -2.96631974142254        1.99444518056001       -3.54506862137614
H           -0.84034799583124        1.70961882968359       -4.76921047336670
C           -2.06170863785857       -3.12769256269049       -1.04978323056169
C           -2.42731568315064       -3.86757156603358        0.13961661970328
H           -2.76238991913921       -3.34724422103551       -1.86043599603426
H           -1.05713888041329       -3.41847375755960       -1.35553915825933
C           -2.72759379868353       -4.42137737389603        1.15624734185413
H           -2.97579144002345       -4.92972682936461        2.03897395273996
Cl           1.32943578044900       -1.32090984326364        2.50394622258140
Cl           0.96632703473128       -2.92720001019366       -0.02084214122371
O            1.07344550713414       -0.13392583853118       -0.44553559827418
O           -0.22984336769741        0.49392657759167        1.62623680557970
C            1.36815952009435        2.09287383372976        0.23050850946620
C           -0.05651165174222        2.30022540698706        0.22318577358265
C           -2.20129002961089        1.54003272382546        0.93145511387203
C            3.23594339430027        0.63447220434462       -0.06377379511541
C            4.10411747733826        1.59552636330887        0.50975930739276
C            2.24278613891459        3.12533093015664        0.60652971294654
C            3.56626007628249        2.87418787792595        0.82245075469466
C           -0.64333205786413        3.38991572071308       -0.43810877079217
C           -1.99938536285766        3.50651596037980       -0.49988001912052
C           -2.82350548793605        2.56659139335341        0.17522989433496
H            1.81680628999137        4.09247580374197        0.82150296481079
H            4.21926921310181        3.63524525534994        1.21779101063811
H            0.00434346242822        4.08236749951930       -0.95173418951224
H           -2.46477617752328        4.30263792672389       -1.05846039471634
N            1.89521869271429        0.87960681938491       -0.08085981002034
N           -0.84682332325534        1.43847822932009        0.91121019053205
C           -2.99850040403665        0.67113931286076        1.70681510412491
C           -4.22096688391520        2.63863282943452        0.13960295098104
H           -4.68445497331917        3.41351208025783       -0.45158741019602
C           -4.38544038433022        0.77887817086016        1.64373666845342
C           -4.99200000190435        1.74209055079455        0.85004983818108
H           -6.06854750424224        1.79940371143494        0.80820920370110
C            3.78006212035144       -0.53126667932675       -0.63954368060572
C            5.45236130798234        1.26835306727433        0.68801946410606
H            6.10386371277854        1.99033124380449        1.15542319801314
C            5.94430091714515        0.04962221043101        0.26276930200381
H            6.97933322563426       -0.20365759695649        0.43001911920282
C            5.12916102989773       -0.82227977276275       -0.44210812951027
H            5.53038594143377       -1.72919405585758       -0.86731989898189
H           -4.98304089751213        0.09903730977475        2.23197693520220
C           -2.47459746446688       -0.29198169500147        2.60188378812230
C            3.06702683748119       -1.29379114653847       -1.59288241565737
N           -2.20057701730241       -1.06361752288402        3.40424417705061
N            2.62433337117781       -1.83237926089588       -2.50324360966059
