59
 energy: -108.590785229778 gnorm: 0.000867533722 xtb: 6.5.1 (b24c23e)
Si          -0.40132684476145        0.76182467921897        0.91325004333525
O            0.70217248756365        1.07256088953023       -0.23395200926519
C            1.70351374674462        2.04952287139459       -0.37230648715579
C            2.83945577199553        1.43364618681596       -1.14927487445907
H            2.04766005156947        2.36291639611007        0.62220849804596
C            2.56867607992309        0.54542943194259       -2.18224668480770
C            4.15861660618308        1.74321339834977       -0.84782390123896
C            3.60216899456378       -0.02457460986563       -2.90319133890167
H            1.54070200278183        0.30268705782622       -2.40553598277593
C            5.19160413995728        1.17858054855230       -1.57531993957348
H            4.37337449119592        2.42882866033195       -0.04086527450487
C            4.91595544010179        0.29366042916892       -2.60388427917340
H            3.38155435587592       -0.71407788926367       -3.70550593344594
H            6.21519054318053        1.42844466567386       -1.33707622443070
H            5.72344875821799       -0.14707415089392       -3.17019699958048
C            1.12523944911518        3.27221429964080       -1.11039725527828
C            0.16368978368401        3.95468764475630       -0.27204763456850
H            1.94045144942552        3.94970529112084       -1.37720238944025
H            0.62556335009359        2.92644115204261       -2.01825007868305
C           -0.62530594081981        4.47743889603324        0.45923177064090
H           -1.32543013484856        4.94498218891734        1.08411602849289
Cl           0.57889801535951        1.75900971111071        2.50649654730079
Cl          -2.27512006790849        1.26281103578743        1.67091956558692
O           -1.28626879192998        0.02661751982893       -0.58393880057019
O           -0.10232131626659       -0.85300777971035        1.48403973992972
C           -1.78459546246865       -2.19152451509882       -0.24671132406020
C           -0.36472553783317       -2.43419307861926       -0.22154677790632
C            1.80924114454849       -1.80469716763252        0.53856746167067
C           -3.52790275633017       -0.59062371434889       -0.52795954485269
C           -4.50458267428856       -1.59853828552866       -0.33231335610882
C           -2.73145378114177       -3.22511721853364       -0.17272294365907
C           -4.06439613224091       -2.93874139883594       -0.16067003323842
C            0.21512508813331       -3.34504222710899       -1.11810661316269
C            1.56476848442587       -3.35412041218225       -1.32072553758356
C            2.40706622197371       -2.53837905024974       -0.51645138191398
H           -2.37270357011215       -4.23522682367891       -0.05411631769071
H           -4.79904955293818       -3.71747471147694       -0.03219591309992
H           -0.44448167804149       -3.94895690229671       -1.72099878268841
H            2.00826935034947       -3.96922654745103       -2.08677095219768
N           -2.21281761770915       -0.91670014396634       -0.42401834776578
N            0.45103094221598       -1.71797689945312        0.59590062721911
C            2.63425050339409       -1.21167374977989        1.51451363027512
C            3.79249259721340       -2.46922868234060       -0.69118474282549
H            4.23884645772907       -3.00455583437717       -1.51451014517387
C            4.01162711585376       -1.15656936800522        1.30063753240671
C            4.57777414786040       -1.73797777583033        0.17835939934634
H            5.64119568127483       -1.66447080273961        0.01601060199315
C           -3.93348863460485        0.71801632128960       -0.86798699049863
C           -5.85942479730303       -1.24516203248955       -0.35659263378946
H           -6.59823160507108       -2.01274197993681       -0.18446435820895
C           -6.24302512336957        0.05538553966648       -0.60552483567232
H           -7.28884834772727        0.31978936255427       -0.60969465534862
C           -5.28959109403458        1.02447527728361       -0.88924642159926
H           -5.58977773699412        2.03063377982461       -1.13832968156081
H            4.62970894960169       -0.67358492384712        2.04165686636942
C            2.15629621295028       -0.86980357771593        2.80068846536858
C           -3.02592610987218        1.72057910642533       -1.28638269681527
N            1.89401362831580       -0.74938833464738        3.91022973463816
N           -2.40792173476367        2.57872124670979       -1.73009443734210
