59
 energy: -108.520158486486 gnorm: 0.000451838584 xtb: 6.5.1 (b24c23e)
Si           0.79499166694311       -1.14899362967068        1.24705386966232
O           -1.46551993990768        1.58242923892386       -3.06313864518104
C           -1.95728045872188        0.56359581297091       -2.63237144791699
C           -3.39102774647778        0.35784551141657       -2.40544539995815
H           -1.33219963823729       -0.29808831959411       -2.34509478815380
C           -4.31996370789161        1.28036391695628       -2.89072666036926
C           -3.82895824690238       -0.75251705073484       -1.68432301874562
C           -5.66799308468710        1.09368963369053       -2.66029273363865
H           -3.95997879572777        2.12919508954221       -3.45373529956181
C           -5.17962552030469       -0.92427278515358       -1.44515553988056
H           -3.10228355358275       -1.45166578334636       -1.29927806150510
C           -6.09777093482924       -0.00738875331959       -1.93397252160640
H           -6.38802722189178        1.80203884674223       -3.04353497330580
H           -5.52031340173879       -1.77916588355102       -0.88055392561455
H           -7.15295772691283       -0.15170954317333       -1.75183860676983
C           -0.65444252643252       -4.83113488849285        1.27289208780374
C            0.07675366301394       -3.84683075120202        1.67535996505744
H           -1.63945385399906       -5.00119507475705        1.67418241780748
H           -0.30747294005982       -5.51556674445563        0.51673604124012
C            0.80800471134094       -2.84518843383803        2.06016722285769
H            1.48536594450032       -2.98240741945843        2.88883526625745
Cl           2.52832151484958       -0.52331764638970        2.50999092325107
Cl          -0.85739257930223       -1.66180261869566       -0.07885790226725
O            1.53229347004840       -0.51163641763802       -0.18248468110994
O            0.04086241224310        0.31389286014270        1.78095471667676
C            1.69560141174284        1.79376754368759        0.04802448527656
C            0.26644182276334        1.94274175594855        0.11810200371716
C           -1.89480930797221        1.25044410861286        0.89610481686045
C            3.65710141636567        0.42320216871827       -0.11209924708518
C            4.49099760075206        1.56523987813787       -0.03298204486626
C            2.51449764609380        2.94167484034078        0.06224532010860
C            3.87117925722031        2.84107850536150        0.04490534115610
C           -0.34271255216092        2.98627594301035       -0.60795807902080
C           -1.69328578577096        3.14552857675091       -0.62003406634171
C           -2.51916037857695        2.25866507580871        0.12007935310134
H            2.03738232579781        3.90292851213994        0.16346349841332
H            4.49282726837210        3.71986827760910        0.10968651312254
H            0.28515985467893        3.61288262545941       -1.21916100549971
H           -2.15382122135275        3.91833268082006       -1.21292587862654
N            2.30792188995032        0.58735221864007       -0.08277763934511
N           -0.53605720880906        1.15513446034589        0.88964662658618
C           -2.69735689817162        0.39823148363126        1.68258778709568
C           -3.91428311074496        2.36417538685129        0.11516791183291
H           -4.37059898783044        3.13833550409937       -0.48140044378510
C           -4.08379861346701        0.52769964015786        1.63875998125782
C           -4.68905957695426        1.49878837718760        0.85627855467179
H           -5.76410634537816        1.58169370123408        0.84052224764313
C            4.24658646335246       -0.85197258086689       -0.23409752147434
C            5.88103565600446        1.40590024085608       -0.03248571335928
H            6.50244045365569        2.28505877406542        0.04173212500350
C            6.44591949673457        0.15165004004581       -0.12226666632873
H            7.51830301363248        0.03580237181764       -0.11288168750254
C            5.63461610093871       -0.96794891417066       -0.23174022413941
H            6.06899392141812       -1.95268927025041       -0.31415598980239
H           -4.68085070545019       -0.14213555425115        2.23845134408552
C           -2.19331460584964       -0.58559424672963        2.56510427226086
C            3.51668739301913       -2.05536351893229       -0.37128770666876
N           -1.92435783173119       -1.38738010607449        3.33955526995560
N            3.05053463233259       -3.09430166689321       -0.50750284337848
