59
 energy: -108.507802231196 gnorm: 0.000629691642 xtb: 6.5.1 (b24c23e)
Si          -0.18899537823995       -0.75214068284227        0.47875632020212
O            2.09117187742202       -0.93560767887002        0.16499852979652
C            2.70136449347084       -1.96053950155310        0.38815587508911
C            4.15351214794763       -2.06558148774845        0.35807594025626
H            2.16405213950564       -2.88208904942862        0.65145008742041
C            4.93657466825372       -0.94033612276824        0.08805566832582
C            4.77021851954726       -3.29503303681688        0.59813048197476
C            6.31212755841001       -1.04612586333023        0.05617784290054
H            4.43884177629129        0.00016507355709       -0.09086020547448
C            6.14753867275130       -3.39373527510365        0.56331649750606
H            4.16179186627341       -4.16125079307605        0.81114621163468
C            6.91773621174237       -2.27209598481590        0.29209622144137
H            6.91866208909295       -0.17729192584388       -0.15194496216638
H            6.62654878733134       -4.34363943533602        0.74789391729122
H            7.99438732731943       -2.35371687742547        0.26596922275240
C           -1.82488744270414       -1.36223814659715       -3.07363056635731
C           -1.11563082654404       -1.70166109273052       -2.04121645101013
H           -1.36471596317011       -0.91413841298853       -3.93916448141572
H           -2.88784905828833       -1.54109019013604       -3.12950911025888
C           -0.42002535257535       -1.97546866967432       -0.98612463526865
H            0.02850268451901       -2.95336382803515       -0.89232752283889
Cl           0.62492837224654        0.67706935850851        1.90559305384112
Cl          -0.00836329467593       -2.30944285992472        1.90938308451835
O           -0.11865047999619        0.50683058749654       -0.82689432182594
O           -1.85797870052678       -0.34099077663989        0.89222677818342
C           -1.45414207806029        2.26904761097976       -0.18532992168464
C           -2.61515234544891        1.44937189941024       -0.42771157225999
C           -3.76560314139376       -0.64105201164057       -0.39149876684209
C            0.89680070535044        2.55119213727800       -0.42578623579988
C            0.82444461624596        3.84801234645148        0.13656738885303
C           -1.56825375504359        3.59391971018802        0.26945145619203
C           -0.45602476483698        4.35107490106008        0.48885348187324
C           -3.64943850093845        1.99898034731583       -1.20402574827027
C           -4.65680080092090        1.22036278961332       -1.68784316314646
C           -4.71697988940915       -0.15117667239555       -1.32368991912068
H           -2.55055721477406        3.96278599691009        0.51906214358554
H           -0.53127315301510        5.33580512353542        0.92167121472529
H           -3.56754728484545        3.03670930676013       -1.48625570621591
H           -5.40481593258953        1.62179201804528       -2.35210615951101
N           -0.22770413951453        1.79486547370321       -0.49936199387075
N           -2.72855723251544        0.15900518398916       -0.00474250885842
C           -3.93643785196394       -1.94153293236901        0.12380231544376
C           -5.70120801544873       -1.00864879741453       -1.82493908700562
H           -6.40186860641356       -0.62284888364439       -2.54964760157848
C           -4.92829552079103       -2.76991269404342       -0.40494399504261
C           -5.78159296448454       -2.31915830570323       -1.39726439604007
H           -6.53065347306759       -2.97998743941962       -1.80447385540895
C            2.12265739590764        2.07601364012372       -0.93576413544527
C            2.00433716665615        4.58280279164471        0.30104378442498
H            1.94890043468632        5.55955730142245        0.75654395542787
C            3.21522389494542        4.07132501177124       -0.11657335392135
H            4.12144071284935        4.63899722560557        0.02756108069370
C            3.27113915385234        2.84325350640334       -0.76088309213013
H            4.20861927504614        2.47526430718870       -1.15109739143158
H           -5.02596515581872       -3.76913539951486       -0.00872973033361
C           -3.25765324540648       -2.44705871562892        1.25529804226297
C            2.22200726292993        0.91720541893866       -1.74079402838384
N           -2.88534659309006       -2.95134660571464        2.21516983441662
N            2.42358134593174        0.08639708128003       -2.50659681210250
