59
 energy: -108.593948400634 gnorm: 0.000918658742 xtb: 6.5.1 (b24c23e)
Si           0.14902418191178       -0.23288371665379        0.27876991940258
O            1.33083669024856       -1.29210111811426        0.52450237553376
C            1.86862387749596       -2.38831079500010       -0.17929745518979
C            3.35843860045979       -2.19190503916181       -0.31126417327355
H            1.41498256532117       -2.45168162787382       -1.17448319953005
C            4.06758625287243       -1.50834594837436        0.66608347912885
C            4.03484771348756       -2.71825274679059       -1.40293324317263
C            5.43567419929496       -1.34455229021046        0.54633961291589
H            3.53717417512991       -1.08851303110824        1.50665985073669
C            5.40385469571250       -2.55995350406926       -1.51684256381975
H            3.48408584132198       -3.24564217297130       -2.16888646805562
C            6.10697484746513       -1.87126450902446       -0.54321142374018
H            5.97889670947652       -0.80260482867316        1.30712662716295
H            5.92279233711606       -2.96799860245321       -2.37219598923823
H            7.17560526338036       -1.74137636195023       -0.63705929564317
C            1.57254924479913       -3.68403850253549        0.60306880592214
C            0.21012397560891       -4.12732286540014        0.40687430327109
H            2.26020331922024       -4.46435830091411        0.26505792381350
H            1.74787627531050       -3.48870371594175        1.66369401732654
C           -0.91688843780556       -4.47720869827422        0.21055991415741
H           -1.90265728982893       -4.79272467004084        0.04431298272348
Cl           0.95359567622151        0.87171928297669        1.92595844445094
Cl          -0.85864001432339       -1.38464882640460       -1.28256979398242
O            0.28462107263044        1.05346849694704       -0.86895092927327
O           -1.39028969588288        0.24303135217338        0.95633895400028
C           -1.30729746314255        2.67195521427777       -0.33894337364864
C           -2.39603007940335        1.74150261540944       -0.50126013408373
C           -3.42478518940307       -0.36293329163777        0.00290793899587
C            1.03761456027022        3.14888127215863       -0.20845218511969
C            0.76463622562673        4.47506758460123        0.20870221043780
C           -1.58912160135016        4.02088124315666       -0.05138136531461
C           -0.59121019871014        4.89827486442176        0.24809987006155
C           -3.51028746730206        2.08981701782575       -1.28760985540344
C           -4.52531873897563        1.20601632303590       -1.49725077673757
C           -4.50842127912976       -0.06354016894008       -0.85916872185702
H           -2.62359712221865        4.31874618732583        0.01124846665365
H           -0.81390506572387        5.91337535033052        0.53544548027997
H           -3.50007110796988        3.04770299903640       -1.78272888601994
H           -5.34664993827331        1.45023143437912       -2.15188336439026
N           -0.00239892251409        2.31071828369920       -0.46460016828922
N           -2.41770664729732        0.54020299031994        0.13383497840187
C           -3.42754543592931       -1.57423382556090        0.72458297227179
C           -5.52488964107849       -1.00863075733623       -1.03678037917839
H           -6.33670546766179       -0.77638934150437       -1.70875612490176
C           -4.46251886687451       -2.48431791938562        0.52441542981871
C           -5.49328878154882       -2.21128080942832       -0.36287313043328
H           -6.27775330872622       -2.93698957333555       -0.51061630648687
C            2.37610602328198        2.73763070890111       -0.37161156690076
C            1.82697238118134        5.32085489618632        0.54535072611224
H            1.60559211459325        6.32327671083639        0.87788996137558
C            3.13130210348913        4.88260047480767        0.45400373753467
H            3.94387035319587        5.53554871642855        0.73128641286127
C            3.40498577694042        3.60879882702718       -0.02133913704501
H            4.42437207701604        3.27258326787221       -0.13373294930615
H           -4.45075566852080       -3.40889526139027        1.08166965525605
C           -2.45880383579318       -1.91579102840881        1.69799313888783
C            2.75857946442053        1.50360360161943       -0.94782409386964
N           -1.77923154825031       -2.28759592225959        2.54323716939018
N            3.19649521912504        0.58254005535513       -1.47221630501164
