59
 energy: -108.589270532728 gnorm: 0.000730709742 xtb: 6.5.1 (b24c23e)
Si          -0.03272354156945       -0.52441174478991        0.63442107103558
O           -0.90668559093631       -0.84743683594440       -0.68965727092221
C           -2.13545615349807       -1.52484683319700       -0.83376556710149
C           -2.05419706578960       -2.97835253070105       -0.44539057171509
H           -2.88982136656186       -1.02771557532411       -0.20819154246430
C           -0.90088897720496       -3.70743883817754       -0.69291943181736
C           -3.14765304413379       -3.60319463627371        0.13879404005853
C           -0.83748212254906       -5.04528761999136       -0.34544949458241
H           -0.04784938808969       -3.22147024307621       -1.14222074212393
C           -3.08465795631836       -4.94239259680083        0.47737276223936
H           -4.04401114479707       -3.03459412801500        0.34120548821923
C           -1.92842909916381       -5.66582057184774        0.23763516545643
H            0.06924217632416       -5.60104221894299       -0.53291830964631
H           -3.93707281242516       -5.42004229630109        0.93796724740117
H           -1.87802039397031       -6.70996524996262        0.51039127349409
C           -2.53039779989441       -1.39954815311935       -2.31699895826998
C           -2.78629851691542       -0.02225274112543       -2.67362693077250
H           -3.42308674781875       -2.00220120427408       -2.50177276389426
H           -1.70487599694250       -1.78455676257533       -2.91982720121566
C           -2.99618601878094        1.12755489579988       -2.93094427827742
H           -3.18592181561811        2.12612518156038       -3.18835681477675
Cl           1.58597521608982       -1.37457386167614        1.64699852678083
Cl          -1.39972051526182       -1.26973890370905        2.07752720884061
O            1.17702695914459        0.05973192909984       -0.66819427193514
O           -0.19812777182123        1.11415582458864        1.19021557758009
C            2.07294634172308        2.10366580715966       -0.10999056678928
C            0.76634692657987        2.67979545360790       -0.27544837568690
C           -1.58715895717399        2.65562053501976        0.12364308942023
C            3.46501101525523        0.17738585103430       -0.24874984726954
C            4.58626901062442        0.93764703898880        0.16787806053884
C            3.19228025864366        2.90109129325427        0.18665413330080
C            4.41475072568490        2.33229415431116        0.37738753791857
C            0.60741382271063        3.79632572150233       -1.11364337132430
C           -0.63353007280418        4.23402417405680       -1.46726277437990
C           -1.78301751574588        3.64977196341565       -0.86878941691135
H            3.03815939613596        3.95831558409999        0.33331683671014
H            5.26379431817870        2.92493040000543        0.67810719959783
H            1.49396612696194        4.22903029281433       -1.54907715281128
H           -0.76091461542354        5.02561957379307       -2.18787050922778
N            2.24513520573512        0.77538097264230       -0.31760749820053
N           -0.33610995791413        2.14672483758057        0.31746788153685
C           -2.68631042537920        2.26192862602680        0.91290895971389
C           -3.08222014658306        4.06327148034050       -1.17865902712422
H           -3.21853419601124        4.80762168452850       -1.94880198734327
C           -3.96990346458266        2.68634901592335        0.56452212486151
C           -4.16988815990773        3.54421364834673       -0.50323659075852
H           -5.17057915025584        3.84734980807136       -0.76838591103404
C            3.64591608543665       -1.17284243230455       -0.61670370583762
C            5.82424986619220        0.30233593882826        0.32351324696758
H            6.66595539235670        0.88610836717120        0.66325060179638
C            5.96811706856262       -1.03901819572346        0.04125830042528
H            6.92247701408764       -1.52284204836254        0.17758749317155
C            4.89362892982587       -1.76543105486935       -0.45366686056554
H            5.01366543910509       -2.80278684812007       -0.72583476698884
H           -4.80210974951580        2.35484314333883        1.16646691348754
C           -2.54656135978346        1.64449228194907        2.17714937540913
C            2.63899523630003       -1.94743775146557       -1.23551596187142
N           -2.54252144189987        1.31685715649725        3.27552454089520
N            1.95379252138373       -2.65370175868476       -1.82501918321917
