77
 energy: -129.337820831526 gnorm: 0.000316389106 xtb: 6.5.1 (b24c23e)
Si          -0.08381607364880       -0.46729045741099        0.90717386158171
O            1.19941904954227        0.54762096569243        0.93040800461283
C            1.40178236614952        1.83376234985035        1.48311622992980
C            1.18944827791949        2.81373265517805        0.35018436035356
H            0.64650305538855        2.00880188651076        2.25964295991861
C            2.22821797233905        3.39576614799868       -0.36207002872524
C           -0.12129409273060        3.05569673563352       -0.05017482668155
C            1.96022937433052        4.20732888289620       -1.45234717450956
H            3.25444917224279        3.22357579957602       -0.07659031117240
C           -0.38613090118398        3.85361589319107       -1.14720993576226
H           -0.92981941933332        2.60256806005992        0.50418532841838
C            0.65590437305729        4.43301577303145       -1.85274395593256
H            2.77834643938845        4.66219236581575       -1.99216629938063
H           -1.40831775276957        4.03010877125931       -1.44988475530441
H            0.45094775645745        5.06126930859332       -2.70748990863769
C            2.79353453068951        1.88727298372707        2.12404589112420
C            2.81896509769838        1.07526106778863        3.32302122452059
H            3.02484921852499        2.92411238209198        2.38270408617231
H            3.53782368989976        1.51193095500468        1.41599822811792
C            2.80634531407208        0.38799145424085        4.30204107013514
H            2.79557979180903       -0.20981080144122        5.16338451914507
Cl          -0.27640281625521       -2.39866310238908        1.58789945488171
Cl          -1.05543073271340        0.38178154484664        2.61297638090897
O           -1.38029548560925        0.12376647879985       -0.06463155624567
O            0.67384187978225       -1.25957810866749       -0.53383362952907
C           -1.06126414503049       -0.35541240088351       -2.35279225034259
C            0.30610786713567        0.09197603600281       -2.35185799092326
C            2.51160703909839       -0.10176558919273       -1.44331808105392
C           -3.11038446601480       -0.93536706325586       -1.24395214121549
C           -3.53562482781345       -1.63626780235909       -2.40461711848802
C           -1.59057532201393       -0.82826042981849       -3.56752808663812
C           -2.76176808128016       -1.52000025204219       -3.59201796208755
C            0.77058934518075        0.99494741579510       -3.32393113517082
C            2.05374985255774        1.44441491883379       -3.28243844877218
C            2.95912685579000        0.92055244608088       -2.31977454108380
H           -0.98205413372741       -0.73126904626089       -4.45247374302993
H           -3.11764340042257       -1.98500024338870       -4.49708806577687
H            0.06234085084536        1.38611470769041       -4.03668738907565
H            2.39970979132768        2.20362944522613       -3.96523044295027
C            4.27570065295752        1.38308932882061       -2.22251399152954
C            3.42930413267495       -0.72662560877293       -0.57242537286094
N           -1.83799825114972       -0.40830211091472       -1.23457140306067
N            1.18580026076857       -0.43342047128057       -1.46592146845599
C           -4.00152110170661       -0.81063422858450       -0.15785971915430
C           -4.72308738341359       -2.37115200848545       -2.37722982339675
C           -5.50082876361864       -2.39209864786598       -1.23991316703559
C           -5.15970323339526       -1.58335892522784       -0.16769536237989
C           -3.88895214396885        0.20397852217502        0.90080602135585
H           -5.01911567499126       -2.91278098348992       -3.26238923000077
H           -6.40221519967343       -2.98403910589981       -1.20501686497681
H           -5.82808016438423       -1.50672079666410        0.67627239815852
C            5.13312594895965        0.85083654852356       -1.28633478128793
C            4.71330466321616       -0.20743755921906       -0.48920172181950
C            3.12954737999580       -1.95061200327578        0.19067567291094
H            4.60074855328711        2.16702114299266       -2.88931141398875
H            6.14028222680088        1.22776901949404       -1.19199455148154
H            5.40642253473014       -0.66834714822325        0.19916921706752
C           -4.15192994590481       -0.11093901910847        2.22977662919163
C           -3.66399471421067        1.53460819976469        0.55303699845970
C           -3.94619124418437        2.19899943968308        2.83880038565998
C           -3.68703497639879        2.52241473699181        1.51764050997800
C           -4.17763235516044        0.88141627178971        3.19137029640823
H           -4.36500738811039        0.62283916856189        4.22236357082113
H           -3.95809745719669        2.97248338732954        3.59188229063808
H           -3.50349422394898        3.55027735830520        1.23768895194194
H           -3.48279127563172        1.79266371209366       -0.48189555743956
C            3.32656442828901       -1.99811620916903        1.56537737182479
C            2.72275559383689       -3.10209918524924       -0.47870298686057
C            2.67418382642111       -4.30673063344743        1.59332096124599
C            2.49651644087258       -4.27103326548514        0.22036268009892
C            3.08830545324355       -3.16878121144714        2.26188368177063
H            3.62495131162774       -1.10714894033159        2.09659622332762
H            3.22090399061165       -3.18753816045652        3.33317026835807
H            2.48172034514510       -5.21759064631399        2.13977174258880
H            2.17318420960808       -5.15657052081208       -0.30685516953013
H            2.58383068081231       -3.07540707575988       -1.55088128501007
H           -4.29805244749585       -1.14274150534832        2.51307517713052
