77
 energy: -129.332053117391 gnorm: 0.000445944243 xtb: 6.5.1 (b24c23e)
Si          -0.05544261057164       -0.64546393456641        1.00470165482384
O           -0.06501146704306        0.83054157139327        1.67146859813527
C           -0.67585049134333        2.03546774543983        1.27087833724000
C            0.09359141669136        2.66254880951394        0.13784136248531
H           -1.69827170257016        1.82367104165431        0.95525995234700
C            1.46142030881317        2.86981882422216        0.26966681868978
C           -0.53899438634602        3.04380648767585       -1.03615136949610
C            2.17573225802989        3.49024365798685       -0.73819331553586
H            1.96174219265277        2.53578887215535        1.16673990717026
C            0.18066207140599        3.64463714552283       -2.05487378073009
H           -1.59830884592496        2.86715847937037       -1.14595132936521
C            1.53548915071940        3.88198815029555       -1.90192560605226
H            3.23375875424842        3.66790320265253       -0.61631706576604
H           -0.31972418449234        3.93655049824930       -2.96712074511564
H            2.09318736493582        4.36816852966687       -2.68876231159599
C           -0.69564036247984        2.98589341235900        2.48246432628278
C           -1.31820145741617        2.36793492423792        3.63280159685584
H           -1.23606234785188        3.89472113142613        2.20361457152996
H            0.33153466896679        3.25013397239722        2.74543897867973
C           -1.79751781360381        1.84201647177359        4.59421363560278
H           -2.21777884895458        1.38208041642754        5.43775086950188
Cl           1.16892247983652       -1.31299961900817        2.58023999265630
Cl          -1.32561980147878       -2.29959353964405        1.23727028571906
O           -1.17974031233507       -0.04557861515131       -0.35564849201940
O            1.18127718248370       -1.00579316062472       -0.12827662553010
C           -0.62166772583100       -1.12246501812580       -2.30947480509069
C            0.63075056341729       -0.41391259893503       -2.34635652628387
C            2.73664704820313        0.22673133659150       -1.39025425726630
C           -2.74287542882550       -1.53800338845466       -1.29722238845728
C           -2.96761371002966       -2.60548442067102       -2.20523013577876
C           -0.92269862266092       -2.03592760867032       -3.33576958175764
C           -2.03382505954591       -2.81697653169302       -3.25398083460016
C            0.98137636345439        0.22578465815282       -3.54692546170845
C            2.10052271407909        0.99446988376361       -3.62676969328823
C            3.01169142189800        1.02049656818650       -2.53683305459526
H           -0.19591274440047       -2.17471886566500       -4.12029772840635
H           -2.21911262066210       -3.60033949182543       -3.97134358030296
H            0.28673710380501        0.16438192377268       -4.36943872512146
H            2.32332709669313        1.56904181546199       -4.51091415530771
C            4.19208207090731        1.76350314334056       -2.60706380930936
C            3.74600928055215        0.06347211962505       -0.41889269460536
N           -1.53311997145797       -0.89528552180727       -1.33510800320526
N            1.49328193316467       -0.36139621278544       -1.29273606968631
C           -3.75746983053858       -1.18665477928987       -0.38596027216362
C           -4.10976777951328       -3.40125439687720       -2.06553393922216
C           -5.02065348277780       -3.14218439334428       -1.06835097017485
C           -4.85738965569965       -2.02114914715731       -0.26414924852809
C           -3.80767219556029        0.09514906473238        0.33865758412211
H           -4.25700948707568       -4.22075705298271       -2.75218475741733
H           -5.88392514263607       -3.77607720003617       -0.93849733363510
H           -5.61710172139728       -1.76270153196171        0.45804970307518
C            5.10486457832595        1.71988859004899       -1.57588981444195
C            4.89040200674558        0.85244614542794       -0.51813246840695
C            3.77777571076245       -1.00048729866739        0.59700246638497
H            4.37484649696831        2.36427992621060       -3.48464311007391
H            6.00574692256516        2.31290419771727       -1.61610191321655
H            5.65198555611368        0.73544861992333        0.23790953141021
C           -3.96902234180249        0.14068259877091        1.71857626614478
C           -3.87280049066249        1.27731292413507       -0.39500286913388
C           -4.27196568776826        2.51985919547286        1.61745755916723
C           -4.10546066235654        2.48286826039516        0.24280883158499
C           -4.19430276458302        1.34874809279383        2.35265813400904
H           -4.31767652524674        1.37890363566198        3.42355412987935
H           -4.45975915106675        3.45950436349965        2.11511305758422
H           -4.16644622801535        3.39464587397317       -0.33488016409729
H           -3.76291301823863        1.24208044970450       -1.47084989373720
C            3.55458811138456       -2.32239725562493        0.21881401264817
C            4.18496526632414       -0.73208204640750        1.89973466152171
C            4.11976782329711       -3.06885043478404        2.42549954812140
C            4.35148150535205       -1.75988393400117        2.80777089205921
C            3.71903320822425       -3.34641051408830        1.12996627647256
H            3.26386051579635       -2.54647654988346       -0.79839142840002
H            3.53443043278672       -4.36648906774700        0.82618851466121
H            4.24310472837326       -3.87131821192670        3.13679777161482
H            4.65133749610140       -1.53682590973416        3.82026875834670
H            4.33988346141610        0.29120245038397        2.20965053297686
H           -3.90261658473132       -0.77494993002056        2.28589120912183
