77
 energy: -129.333642845754 gnorm: 0.000491728502 xtb: 6.5.1 (b24c23e)
Si           0.02209883347487       -0.30800283077453       -0.90016517858234
O           -1.31383760972868        0.62784410829544       -0.84701882464573
C           -1.78217898119697        1.95344704781963       -0.96133041318146
C           -1.15549765573704        2.81285024450731        0.11187424158560
H           -2.86132984874796        1.86604397859016       -0.75303109698678
C            0.21600332068656        3.03530592474942        0.13952934747953
C           -1.94934426979483        3.35095308498086        1.11690370926362
C            0.78081937742700        3.76000679847763        1.17409462587400
H            0.84394823096129        2.62883325380167       -0.63708925126533
C           -1.38305908977886        4.08460601879583        2.14439655748750
H           -3.01879285606084        3.19324802531971        1.09363817399084
C           -0.01373532538529        4.28223600545448        2.18076080657422
H            1.84875484999811        3.92055926495442        1.19146132736249
H           -2.01201062852093        4.49930928325138        2.91885362208726
H            0.43102645943710        4.84704527587782        2.98736569678961
C           -1.62103773554856        2.57423334973374       -2.35913994993670
C           -2.44155184517386        1.88036191283045       -3.32692372328971
H           -1.92984298993098        3.62201565528531       -2.29933308776412
H           -0.57774323518950        2.52055974111249       -2.67135002421976
C           -3.14801998339811        1.28931110097200       -4.09109071878314
H           -3.74272291998312        0.77767985768958       -4.78747760999552
Cl           0.29938819962295       -2.13985311564624       -1.80232857115486
Cl           1.02653310691799        0.74868087596802       -2.45983921093787
O            1.29907648719253        0.15638762208147        0.16392449994935
O           -0.73536270996606       -1.30527101245248        0.42340966085310
C            0.93036931715302       -0.57451969044560        2.37508618780907
C           -0.44594494229691       -0.16293476861668        2.39090167001620
C           -2.62765433264076       -0.30930404006159        1.41296764043710
C            2.98496738587150       -1.08122104957440        1.23772934657665
C            3.39012221413878       -1.87745115317607        2.34395878176042
C            1.44520034051532       -1.14624126614262        3.55416362727554
C            2.61490135241058       -1.83793780481983        3.53551375829970
C           -0.95786885032800        0.59880140093606        3.45648022116057
C           -2.25966617667399        0.98964903156471        3.45539951931997
C           -3.13044184320304        0.55884996264525        2.41761668156279
H            0.82586116707244       -1.12421250103511        4.43645807615924
H            2.96393911218128       -2.37064191207055        4.40526603332456
H           -0.27411770327032        0.93198421733486        4.22058516287467
H           -2.64709885039174        1.63726234103460        4.22553172602807
C           -4.46410182077020        0.97848450564581        2.36597001635661
C           -3.50450234200950       -0.81452412575172        0.42978665116102
N            1.72699291623815       -0.52052854161864        1.26957877899226
N           -1.29284970075228       -0.60630094017868        1.42910085333533
C            3.88245875169998       -0.91139121768377        0.16261082245423
C            4.55680382416380       -2.64103477411351        2.26784470805676
C            5.33635554750863       -2.60681836316284        1.13269145751137
C            5.01706939278471       -1.71790800216666        0.11940527480972
C            3.81700329754457        0.16663087156934       -0.83606942632453
H            4.83341864960811       -3.25096827355374        3.11402910531527
H            6.22066406348188       -3.22013389885763        1.05625539918525
H            5.68646533129779       -1.60462365674852       -0.71965865842310
C           -5.28748405822025        0.55829537825309        1.34677407906636
C           -4.80777121473422       -0.34074189539671        0.40221463814498
H           -4.82832631212557        1.64289047670315        3.13499632802828
H           -6.30905954800030        0.90207832897816        1.29242983855488
H           -5.46688136966522       -0.70982707498193       -0.36936476028165
C            4.06794188083471       -0.09015000794129       -2.18031910034387
C            3.67133449890382        1.48632444003533       -0.41455811185444
C            4.02112621416355        2.25864928002619       -2.65749011366617
C            3.76880533779582        2.52277199183503       -1.32212149229582
C            4.16594714835185        0.95046904605242       -3.08424745197648
H            4.34467332963157        0.73845965184950       -4.12743610036707
H            4.09377290989992        3.07089553584302       -3.36489312209032
H            3.65011655175683        3.54329783215664       -0.98675061667716
H            3.49351606119133        1.69534559187844        0.63156964759520
H            4.14937073641482       -1.11225162686383       -2.51981122551658
C           -3.14600197314596       -1.86078630935520       -0.54542414139647
C           -2.77733320689101       -3.12972839748713       -0.10953268730891
C           -3.25688554362115       -1.61284399456914       -1.90843863843581
C           -2.50814068230225       -4.12798788294958       -1.02548444951090
H           -2.70007274460602       -3.32872216911284        0.95051619060668
C           -2.97395157470823       -2.61250927097886       -2.82095226001257
H           -3.52068808461156       -0.62268655514744       -2.24997285368198
C           -2.60292226738404       -3.87147829079686       -2.38290495563961
H           -2.21499420311669       -5.10816651056343       -0.67905899705593
H           -3.03458997917491       -2.40361181644922       -3.87852954879133
H           -2.37665218962361       -4.64904657380195       -3.09678211870107
