77
 energy: -129.336760492587 gnorm: 0.000579386970 xtb: 6.5.1 (b24c23e)
Si           0.55568138109338       -0.57623543186056       -0.74341599451476
O            0.35013040145415        0.96629480103113       -1.18971251301473
C           -0.71300340429949        1.56013053190664       -1.88625168058919
C           -1.72513229636297        2.11784806988940       -0.91466396314705
H           -1.19452836619790        0.80855917866007       -2.52735842465767
C           -1.39419840623317        2.30539146275776        0.41983459654102
C           -2.99698897292089        2.46622619158096       -1.35312604369496
C           -2.32441360539080        2.81952428335399        1.30590907870329
H           -0.40025088438276        2.04509463245632        0.75097995968847
C           -3.92472106812593        2.98353367700527       -0.46752042414289
H           -3.25633027451399        2.33301809218961       -2.39443732419534
C           -3.59140546339391        3.15863802400733        0.86525162186406
H           -2.05812746623319        2.95843238288594        2.34407406604317
H           -4.91188031223987        3.24971430079749       -0.81697863014596
H           -4.31645513090207        3.56191744259215        1.55662951611844
C           -0.14459671240781        2.68583759165076       -2.76979564407355
C            0.65254595584780        2.13715373417946       -3.84487033125082
H           -0.96994824911130        3.27113337725524       -3.18328757218760
H            0.47642649951547        3.32851609425471       -2.14179876872980
C            1.29571046799545        1.65097879154527       -4.72859200600480
H            1.86301785503385        1.22797969605601       -5.50251451810784
Cl          -0.45328393994771       -1.51626575757561       -2.38561156813343
Cl           2.30261187342724       -1.62872368534979       -1.19918905452436
O            1.35472836069391        0.12997487171844        0.72056783134070
O           -0.59692160101489       -1.37409502810897        0.25726490446863
C            1.29615548763567       -1.41327831235859        2.41754545816163
C           -0.11006148473429       -1.15366389317235        2.56549377556352
C           -2.30263109108782       -0.66800628338812        1.70754921922772
C            3.39529792495328       -0.77386984275952        1.45666835976352
C            4.04815210124176       -1.78760320736333        2.20498588671393
C            1.95070971176164       -2.33333179799830        3.25803857338748
C            3.28376082525834       -2.56354852989140        3.11758414385646
C           -0.57796801045492       -0.92330711222664        3.87341386957621
C           -1.81128823105201       -0.39366628421488        4.08841971951386
C           -2.69583743468286       -0.20186237110907        2.99160831127524
H            1.35346081678713       -2.90798864364645        3.94792797081334
H            3.77915905400709       -3.32913000211979        3.69340129231158
H            0.11418573658369       -1.06664126643782        4.68761678043781
H           -2.13505891179384       -0.11401422778824        5.07791737669718
C           -3.95329969079130        0.37676882744975        3.17316506771025
C           -3.27259157913661       -0.72786027424671        0.68490643069717
N            2.03364624583064       -0.68485600144149        1.54489962937812
N           -0.98734370868946       -1.03917254658761        1.52652228166166
C            4.15588947332845        0.09702197595477        0.64951966095464
C            5.42258559245167       -1.98975023594784        2.04000007139741
C            6.13998502132867       -1.20411098683401        1.16878710255636
C            5.51012510453719       -0.15948523032392        0.50272372650551
C            3.62226959610082        1.31662900704004        0.01625707769916
H            5.90356892147150       -2.77316115114994        2.60548635331926
H            7.19548124112840       -1.37455318648290        1.02326552807283
H            6.08763293411588        0.49557671599715       -0.13214470975472
C           -4.83188586018027        0.47418804397618        2.11701310598365
C           -4.50135807820454       -0.11107914431224        0.90668656882178
C           -3.17053341957125       -1.54364553001408       -0.53507030805921
H           -4.22205038443535        0.73583072387277        4.15479135721898
H           -5.79410448967640        0.94476741798307        2.24540238369588
H           -5.23170520177231       -0.13898125773990        0.11273100989297
C            3.78382183524554        1.52678534366201       -1.34810679038097
C            3.04844881556785        2.31687254467743        0.79559779366101
C            2.81540433740836        3.70974239262425       -1.14117318696617
C            2.64460534124016        3.50463857540699        0.21789773725812
C            3.37755791836519        2.71573234135052       -1.92389077196706
H            3.49294915092244        2.86534140969652       -2.98669094726324
H            2.51447494643611        4.64674349412756       -1.58901550445572
H            2.19863085370763        4.27586999126040        0.83013350598337
H            2.92855862476752        2.16319345745606        1.85932953518097
C           -3.59549677268142       -1.04439943673587       -1.76209967056043
C           -2.81134967290441       -2.88613820072782       -0.44149655105688
C           -3.28379226686735       -3.19522204307052       -2.77201531809047
C           -2.86599559621623       -3.70260859119534       -1.55396820367383
C           -3.64445489448472       -1.86322317473618       -2.87374343551886
H           -3.86193942377437       -0.00058717129210       -1.84222034067325
H           -3.95810672522352       -1.45870924225164       -3.82462575065320
H           -3.31774097853822       -3.83368496700388       -3.64168375822275
H           -2.57830969393604       -4.74027874110030       -1.47012396146565
H           -2.50035772520452       -3.29181140270883        0.51115003891612
H            4.20632607251091        0.74157770296413       -1.95640360876500
