77
 energy: -129.327339691529 gnorm: 0.000831488297 xtb: 6.5.1 (b24c23e)
Si           0.17155461733808       -0.49672229635576       -0.58549461735179
O            1.26742233715230       -1.23574821639165        0.33484200540670
C            1.85605028207230       -2.48045090012985        0.02998360209901
C            2.68758595034356       -2.36014122508526       -1.22034518132864
H            1.06310096474790       -3.22257363140299       -0.12378444632831
C            3.46729740726812       -1.22740869689717       -1.41259843918088
C            2.67383540345306       -3.35426984527300       -2.18737326927956
C            4.22317379056160       -1.09003369970221       -2.56200367929570
H            3.44700668794938       -0.44803432131496       -0.66527240878701
C            3.43512553179792       -3.21742057206486       -3.33509938092181
H            2.05391004593959       -4.22763650202861       -2.04518466992618
C            4.21044348722860       -2.08645368304333       -3.52384536553682
H            4.81966079148729       -0.20170603142448       -2.71066326844680
H            3.41365714788447       -3.99142484758805       -4.08818318545773
H            4.79753133344997       -1.97750991811179       -4.42402663066362
C            2.74291358743848       -2.91876619928501        1.20510055347339
C            1.96556418262059       -3.38252464443992        2.33226272987311
H            3.39453900354003       -3.72796691423291        0.86170488526634
H            3.35680815492583       -2.06751886918506        1.50555086214372
C            1.32842810437931       -3.79642522015677        3.25623971919097
H            0.77550061150242       -4.14364349978195        4.07687264028691
Cl           0.37898884993144       -0.10524466414343       -2.65569370849462
Cl          -1.00887775950688       -2.30186585928290       -1.08678766059061
O           -1.20073578820743        0.14453294684516        0.25859781899638
O            0.97926796615704        1.03329554764873       -0.23942222555308
C           -1.77272629638355        1.66442504614660       -1.39407559675841
C           -0.69514900458144        2.55048445006945       -1.07431162516821
C            1.24604877253500        3.26592401252612        0.16451481679004
C           -3.29155709682329       -0.10543571254638       -0.75779651548046
C           -4.07446958818685        0.11726921601321       -1.91582586238777
C           -2.55538867081018        1.87781271339258       -2.55656100983669
C           -3.63916682059099        1.11045799104454       -2.83424311936161
C           -0.84111375428954        3.89241184362020       -1.52071696391939
C            0.04735431974119        4.86771823427913       -1.21479254578157
C            1.12030104074792        4.58736928634210       -0.32651948771099
H           -2.21518879609559        2.60068844586000       -3.27796291826039
H           -4.17744466176008        1.23303779005215       -3.76077635110594
H           -1.71881058635943        4.14007172187565       -2.09269289447030
H           -0.07651789746282        5.87149378354202       -1.58915989535088
C            2.01857352661276        5.57885127545627        0.07655868772651
C            2.22887662190121        2.98886939443525        1.13842870238229
N           -2.14169602283175        0.62117347341136       -0.59645847947439
N            0.43640075086537        2.26992599053614       -0.34976532031419
C           -3.69385376659303       -1.07281236878803        0.18368250130482
C           -5.20964905765512       -0.66557459519216       -2.14559745998484
C           -5.56247980655076       -1.65229734232072       -1.25468008270951
C           -4.81262896569023       -1.84113292978423       -0.10040604927119
C           -3.03383782726221       -1.27733899477669        1.48604245678948
H           -5.79288926789686       -0.48639138184459       -3.03585757205152
H           -6.42726780671586       -2.27066302072528       -1.43975533006975
H           -5.11240297002959       -2.59096396730423        0.61624384022637
C            3.03039575469629        5.27891856812914        0.95960502031414
C            3.11123151311332        4.00200456764516        1.49582443423324
C            2.31584412914503        1.73278118487174        1.90256169500150
H            1.90272247556649        6.57628735152437       -0.31901352208272
H            3.73782703131291        6.03635262881355        1.26003489451845
H            3.86022426538622        3.78665035978320        2.24301873162848
C           -2.59648829035238       -2.54607654970026        1.84801593605775
C           -2.91772811285305       -0.23194467962293        2.39741593459524
C           -1.91729878979733       -1.71714853811255        3.99310680377724
C           -2.36236907016718       -0.45264752382495        3.64298822643215
C           -2.03354140447320       -2.76068490856170        3.09182492329349
H           -1.69056611019173       -3.74981618221267        3.35460655385841
H           -1.48394846625411       -1.88613365259975        4.96882336035234
H           -2.27822434045045        0.36491979767991        4.34537938758677
H           -3.27221278685374        0.75397263585881        2.12855008816143
C            3.55278160996385        1.13025586420055        2.11086941464579
C            1.19334279636377        1.20611434909508        2.53589175406460
C            2.54806755462187       -0.46900620257759        3.58823202274118
C            1.31007850279216        0.10709723691992        3.36360749882898
C            3.66763587947075        0.03813895333926        2.95017975849167
H            4.42509466356551        1.51425105723803        1.60024741968249
H            4.63602481971611       -0.41599660903351        3.11087209806968
H            2.63774709890775       -1.32265559671671        4.24253915798850
H            0.43005339853994       -0.30261001740254        3.83357782143063
H            0.22583201619445        1.66288006534338        2.38611459714535
H           -2.67108419727886       -3.35305375266695        1.13549138387068
