77
 energy: -129.327331738362 gnorm: 0.000383189248 xtb: 6.5.1 (b24c23e)
Si          -0.03506185856375       -0.44131087851173       -0.69625577019450
O            0.98513521888376       -1.50774505095555       -0.04887757672682
C            1.43073929344768       -2.67573444272262       -0.69810315552612
C            2.48639177372728       -2.33238358573637       -1.71768398630878
H            0.58075239776668       -3.16185987634660       -1.19376680141327
C            3.33781118657871       -1.25960627224175       -1.49292188989488
C            2.62840729656918       -3.08782219369460       -2.87326267474514
C            4.31581158668824       -0.94171596033219       -2.41768255610817
H            3.20400815182727       -0.66912921657212       -0.59959258765986
C            3.61267361162371       -2.77307493876091       -3.79349648639092
H            1.95957489414623       -3.91730083337773       -3.05419740180456
C            4.45754517202753       -1.69965176983339       -3.56772983915926
H            4.96885692863755       -0.09920004195448       -2.24112353680946
H            3.71504614254552       -3.36246588039942       -4.69296898272114
H            5.22109410479464       -1.45105848655506       -4.29042876910058
C            2.01696846354270       -3.63618730527224        0.34859365480672
C            0.98794364158685       -4.16871418621662        1.21318086320504
H            2.51405142674885       -4.45813383754776       -0.17477369047809
H            2.75310232687982       -3.08866647315296        0.94004973729078
C            0.12026115270039       -4.61901544481790        1.90246081162058
H           -0.63074276112286       -5.01974495334333        2.51425395187578
Cl           0.12695341427004        0.19659415462830       -2.69692314048871
Cl          -1.56140668395093       -1.92988383239622       -1.28883887816856
O           -1.23200078347359        0.33037302274865        0.30973479994549
O            1.06146095008667        0.84718407928342       -0.18834995055630
C           -1.51683767553518        2.17575699140172       -1.06978563061988
C           -0.29601102932021        2.77890318336136       -0.63692476906215
C            1.69515885431985        2.85306375624321        0.71845122351091
C           -3.32811046043438        0.63076763673991       -0.67892610657063
C           -4.03597454854365        1.13368878178616       -1.79510853819115
C           -2.24676339381727        2.70921588582718       -2.16147091107457
C           -3.43227490604830        2.17560209084902       -2.55054182593210
C           -0.16598802030111        4.17980357708295       -0.82999588116951
C            0.87708667036162        4.88803276624548       -0.33265675315860
C            1.83118177306154        4.24535417139224        0.50329422316249
H           -1.78963308551171        3.48457914777907       -2.75205334186551
H           -3.93052884880135        2.53021538975137       -3.43889270624303
H           -0.95292120840419        4.69242949004609       -1.35669786355924
H            0.96613152374929        5.94785441410030       -0.51150201412867
C            2.87022073328543        4.95156846265851        1.11518673983330
C            2.56333290731968        2.20718609774705        1.62334965293372
N           -2.06601200134985        1.10198514234612       -0.43504779664586
N            0.74292022885169        2.15172382895239        0.00502209669926
C           -3.91501605037939       -0.34709020332290        0.14682654970313
C           -5.27486998665913        0.57812113728960       -2.12903819231130
C           -5.80143727067727       -0.44472659370315       -1.37441444644327
C           -5.13357423612059       -0.88399979462967       -0.23728215500768
C           -3.34952283546570       -0.74122053720676        1.44880234880368
H           -5.80174124004843        0.96114690066288       -2.98953438784676
H           -6.74617550091175       -0.89022511331197       -1.64557949717061
H           -5.57928557506935       -1.64413528984026        0.38645451826822
C            3.76347546373410        4.29895348615519        1.93412808127492
C            3.59125269803732        2.94719544045258        2.19565708131041
C            2.38780836846582        0.82162032632697        2.09203984681224
H            2.95723883753143        6.01143220127060        0.93084946585938
H            4.57698871850560        4.83765471703457        2.39514549704865
H            4.25209731707024        2.45170464640697        2.89099466096030
C           -3.16721879738091       -2.08129961521794        1.76911222375473
C           -3.08179041499771        0.23093297100113        2.40969206326440
C           -2.45634767980052       -1.46951882261734        3.97907328880792
C           -2.63646894045349       -0.13188588214251        3.66578891288235
C           -2.71899509980286       -2.43954828429081        3.02698517854937
H           -2.58068109265995       -3.48232153636376        3.26958081143652
H           -2.11393896977325       -1.75242467804221        4.96450830366271
H           -2.43170141764447        0.62935604981406        4.40528536840024
H           -3.23695905213787        1.27483316523149        2.17127365386272
C            3.48433484154433       -0.03242465347713        2.16302294356410
C            1.15786574273872        0.38187252732627        2.57401256694052
C            2.12744307731155       -1.72335218363592        3.18787070907515
C            1.02914453794793       -0.88554647946108        3.10693357925470
C            3.35457275831933       -1.29539325519843        2.70945788107174
H            4.43876933496429        0.29126988779545        1.77125140159358
H            4.21646459005602       -1.94680478461956        2.76200545787432
H            2.02231910690227       -2.71309152778947        3.60674064967166
H            0.06510992927682       -1.22084995116357        3.45587350082317
H            0.29676089094824        1.03305010334275        2.53364752226129
H           -3.35055561422065       -2.83326598430598        1.01721066957558
