77
 energy: -129.335634807875 gnorm: 0.000743371377 xtb: 6.5.1 (b24c23e)
Si           0.13029377035086       -0.04130881089902       -0.03451398497445
O           -0.90729265187258       -1.26760345079740       -0.23053308743400
C           -1.29343768698790       -2.36384815706427        0.55703567879777
C           -2.68213761829058       -2.80175004077495        0.17174268607441
H           -1.27028638276695       -2.07870405274813        1.61627622471471
C           -3.18479369244077       -2.53752876723450       -1.09398173877348
C           -3.44659258885109       -3.53285393120707        1.07149683828898
C           -4.44422569872424       -2.98711173914416       -1.44906836640033
H           -2.58377000630651       -1.97031834111233       -1.78632848199355
C           -4.70270549115510       -3.98722685741177        0.71252845511696
H           -3.05781415285554       -3.74013188479152        2.05870571488817
C           -5.20532688289328       -3.71328151918162       -0.54884240853456
H           -4.83255483109015       -2.77174549585169       -2.43393895778653
H           -5.29320700964599       -4.55293393386130        1.41889135397602
H           -6.18852179860856       -4.06470676835113       -0.82699998895960
C           -0.31401849103983       -3.53698512691581        0.34605937464004
C           -0.40248707946903       -4.04933637212418       -1.00296897310969
H            0.69830023984254       -3.17601407253460        0.53989210905402
H           -0.55574015134295       -4.33034232279793        1.05793867790634
C           -0.51845427967129       -4.45906957267586       -2.12112365897605
H           -0.59828657109066       -4.82011590119648       -3.10207300703152
Cl          -0.38369142560236        0.53404916872811       -2.02472427988107
Cl           0.85400732853792       -0.73017251471832        1.92220145582002
O           -0.38919484602266        1.39217511238101        0.73847747284535
O            1.72999765297100        0.46612863313998       -0.46461419809154
C            1.04714601206549        3.08471404855691        0.06939730878919
C            2.17481470020402        2.42634235653276        0.68484180619188
C            3.59622885266812        0.51058261621440        0.98468866109029
C           -1.28945290118289        3.18662434608752       -0.48854201226116
C           -1.05078511445199        4.35532615383195       -1.25944477063067
C            1.25169403863749        4.33056251781053       -0.54863042899331
C            0.24781717695681        4.93085041268094       -1.24506672217928
C            2.98888681881639        3.17106091432951        1.55581567135820
C            4.00031202869913        2.57138124899174        2.24113633948865
C            4.31738754464592        1.20959972941888        1.99019519946927
H            2.24816090407239        4.74277473839179       -0.54102415094216
H            0.42308918785148        5.83769728377395       -1.80143167203456
H            2.72676603955594        4.20132315782203        1.73687181821622
H            4.56845393085167        3.11196756226833        2.98115296927855
C            5.33888503692782        0.56294606891909        2.69208169904864
C            4.01247901061575       -0.78491328066369        0.61515538203733
N           -0.21396276403792        2.58026873530788        0.10366711944341
N            2.51360309871491        1.13494064796860        0.42155594398050
C           -2.60447140153861        2.69597438753357       -0.36271557137609
C           -2.09430020756833        4.92748612245615       -1.99270756266870
C           -3.35281482364363        4.37205134444291       -1.95820996866583
C           -3.60091642426813        3.28666064411195       -1.13055651776603
C           -3.02866942860366        1.66417978885722        0.59942699281413
H           -1.89205253511730        5.80743183272104       -2.58370861192740
H           -4.15434050804462        4.79800784329130       -2.54164548081964
H           -4.60454494717572        2.89782939044275       -1.04693532341135
C            5.66459918875691       -0.74157545338262        2.40036757477793
C            5.02188785455878       -1.38892019538285        1.35538027389732
C            3.51583096109991       -1.52534864896324       -0.55747220714258
H            5.86317014807343        1.10705921326085        3.46265469493486
H            6.43864134699924       -1.24955962343696        2.95451383901346
H            5.32809581495104       -2.38645722208212        1.07824172663444
C           -3.82962951994611        0.60680380322174        0.18261180220397
C           -2.73770053727591        1.79939208903006        1.95531183139578
C           -4.00389829700547       -0.17741775375564        2.44139908121190
C           -3.20877225904849        0.87423843509192        2.86598705506693
C           -4.32239545363657       -0.30190774577325        1.10047305764359
H           -4.95579050901171       -1.10937766604002        0.76749262357257
H           -4.37782308907870       -0.89753066623216        3.15426559912737
H           -2.96098053718609        0.97867049272218        3.91221922745126
H           -2.14147298931765        2.63465829854165        2.29450485736902
C            3.53856452501978       -0.95200497707292       -1.82633939811867
C            3.12237655244034       -2.85291048454131       -0.42276531169790
C            2.72856377133563       -2.99683962212445       -2.78186248694434
C            2.72956961501535       -3.58397026054437       -1.52874878319853
C            3.13730215108576       -1.68202680994691       -2.92806707681837
H            3.87381204165332        0.06788502616915       -1.94789378003402
H            3.14463088208448       -1.22207123469648       -3.90487975018813
H            2.41263895753614       -3.56488069574991       -3.64351058184331
H            2.41622609856470       -4.61032876882784       -1.41129026889625
H            3.11221016615976       -3.30221722088026        0.56046390971398
H           -4.04627986446175        0.48642279844211       -0.86806353683037
