77
 energy: -129.246055296102 gnorm: 0.000627363333 xtb: 6.5.1 (b24c23e)
Si           0.22097933687629       -0.25180368430136       -0.29277338187256
O           -1.96212874044744       -1.10789562077733       -0.24928962909986
C           -2.34329484742562       -1.97955051654676        0.50166696730184
C           -3.34040302085776       -2.98010238321354        0.14140480483754
H           -1.92313235655441       -2.07149198642482        1.51551327948577
C           -3.81078085096319       -3.04299260706909       -1.17247817981819
C           -3.81712081297901       -3.88505132625568        1.09014332697523
C           -4.74610964141547       -3.99417758068570       -1.52708537908673
H           -3.41620627967533       -2.34055862733427       -1.89065400663251
C           -4.75856267525841       -4.82957656257984        0.73023008247813
H           -3.44650107793016       -3.83687601590348        2.10377503895283
C           -5.22295270887396       -4.88469355106661       -0.57612914992867
H           -5.10816226402106       -4.04549424688131       -2.54298365321053
H           -5.13173409467538       -5.52902540983456        1.46371963738955
H           -5.95828112395387       -5.62574961378319       -0.85314042604301
C            0.55175435492940        0.26810937458646        3.64201443913052
C            0.49311348290812       -0.43545242311357        2.55312046269173
H           -0.32774406863918        0.47146458947683        4.23116339479900
H            1.48333170926275        0.66397197320275        4.01553510634225
C            0.43068241623408       -1.08408062159209        1.43706494046049
H            0.56069850732062       -2.15775297331744        1.44334093884348
Cl          -0.46911127060896        0.59590638644567       -2.12113605948882
Cl           0.49651184365263       -2.16125231100362       -1.27083221897596
O           -0.37949834492584        1.18066945572632        0.60040713248827
O            1.82679869366319        0.39986580022695       -0.51362471500317
C            1.06835494583908        2.93056899564753        0.27714719406203
C            2.10966162509419        2.18230324531514        0.94075980947652
C            3.45116059119314        0.20978030824070        1.17774569404452
C           -1.20317731533335        3.12455665992607       -0.45745879884944
C           -0.88357170120718        4.37252507829108       -1.06246148251215
C            1.34533777193226        4.23192129007894       -0.16726626225316
C            0.41289985623649        4.92120008252176       -0.87942709505116
C            2.78496745018602        2.77882107831430        2.01603857985569
C            3.64999940648391        2.05055483267692        2.77629010121953
C            3.97738999496556        0.72099225061513        2.39452834025371
H            2.33815697686210        4.62362549057038       -0.01197420516035
H            0.63890298095723        5.88256030642092       -1.31223463972011
H            2.51757350433294        3.78833394447744        2.28565350711495
H            4.09461306650025        2.46385008837907        3.66773511317550
C            4.83129773182399       -0.07044363413871        3.16725649323685
C            3.95030146954007       -1.00822463151795        0.66948132479127
N           -0.18287382817102        2.42442297594624        0.13089148300354
N            2.47340227995780        0.93488548259422        0.54389697860547
C           -2.54180402477662        2.67208442937373       -0.48797122697366
C           -1.84929904116863        5.06454647569104       -1.79938095393002
C           -3.12317910469041        4.56112670612394       -1.91649990426762
C           -3.46016523284392        3.39940170696520       -1.23925457673131
H           -1.57515147520324        5.99846697561703       -2.26558700577687
H           -3.86894802174669        5.08299850249033       -2.49598348577628
H           -4.48396418013717        3.05864154482276       -1.26227952622689
C            5.18907174714475       -1.32971329390385        2.73825647856231
C            4.78137518735592       -1.76735349070203        1.48785202452933
H            5.20740025492178        0.32565687799033        4.09828011404144
H            5.82806631933343       -1.95195159072362        3.34585181725906
H            5.14792339650961       -2.70873571515360        1.10758028119624
C           -3.09961945096071        1.56180174797390        0.30062774184655
C           -4.05106610001814        0.72079558017725       -0.27582667926280
C           -2.83056951344251        1.43231441636192        1.66164476545270
C           -4.72347404960033       -0.21398814997938        0.48662385082741
H           -4.24601134142919        0.79015924734068       -1.33507203970057
C           -3.47374866863764        0.46799707072293        2.41271150511341
H           -2.12368669494151        2.09525292925694        2.13726426204842
C           -4.42514281825767       -0.35532752299893        1.83161882854745
H           -5.46845924394732       -0.84898513233169        0.02882363272439
H           -3.24504707325837        0.36738124064159        3.46389335028914
H           -4.94092491330099       -1.09588924207041        2.42620290558602
C            3.76962015774866       -1.46347646723017       -0.71705670052308
C            3.48168387324393       -2.79483965100723       -0.99837183048769
C            4.00405500026587       -0.58616688474489       -1.77421229997566
C            3.40562676256027       -3.23439843144594       -2.30649464919029
H            3.27661458932241       -3.47907770045085       -0.18846832213246
C            3.92214118609859       -1.02744529249478       -3.07957059254124
H            4.25791347296866        0.44454280457206       -1.56889781113792
C            3.62052210823488       -2.35198349369670       -3.34972263706350
H            3.15893742742241       -4.26541910516107       -2.51013283217836
H            4.09144784666713       -0.33380096738220       -3.89029323318029
H            3.54734564579290       -2.69233048703642       -4.37205113929904
