77
 energy: -129.331561737273 gnorm: 0.000361187462 xtb: 6.5.1 (b24c23e)
Si           0.10723069368964       -1.33189594026567        0.19387985398648
O            1.47234560559606       -2.25079745232474        0.20341735891789
C            2.81767623971131       -1.94180672347554       -0.08260985116323
C            2.97077029944891       -1.11229971287236       -1.33283615770769
H            3.20775082041183       -1.37087258749639        0.77004648362058
C            2.41040065455923       -1.53210460521873       -2.53200930743810
C            3.62773723315813        0.11134855712748       -1.28814868352238
C            2.46539166386045       -0.72247021168131       -3.65258470056717
H            1.90276043567862       -2.48284658864206       -2.57973888410913
C            3.68677852783324        0.91960420186822       -2.40885870639665
H            4.07500015197094        0.44292114443100       -0.36153407570131
C            3.09494474898037        0.50904230899680       -3.59162764720235
H            2.00749395291562       -1.05311228696522       -4.57318386453425
H            4.18469237897457        1.87750358515101       -2.35392766357506
H            3.12687993547270        1.14709119956154       -4.46313268975065
C            3.59490657262743       -3.26629174510951       -0.19464556209640
C            3.68928979749410       -3.91405360137958        1.09551401245493
H            4.59748532316443       -3.05991565077231       -0.58050347953408
H            3.07135347028837       -3.92386329643112       -0.89186641742991
C            3.76275839003904       -4.41846884740671        2.17773774869502
H            3.81560473499228       -4.87924420925939        3.11825835243924
Cl          -0.70294738170414       -1.96594254626118       -1.62234967442889
Cl          -0.72557177500424       -2.39735574090044        1.72257899674151
O           -1.35833366993178       -0.08289893681194        0.46064830153419
O            1.04111612717020        0.07102021817777        0.02118979784773
C           -1.29503230250800        1.07577380283607       -1.54585689154492
C           -0.09973142215811        1.77263927265456       -1.19900764089292
C            1.67432146075547        2.26176707783449        0.36739568393224
C           -3.24432941903426       -0.14469248915391       -0.87440188068601
C           -3.76040043008687       -0.10349593919129       -2.19078486289342
C           -1.82859211929115        1.16205413583521       -2.85801287783568
C           -2.98799683836040        0.54481551669975       -3.19013676444797
C            0.21077780159082        2.97285786946822       -1.87868658562139
C            1.24169707027884        3.76988169879091       -1.49624588616380
C            1.98487381303972        3.45619339664934       -0.32422201703286
H           -1.23842392471064        1.64724029184075       -3.61697334681640
H           -3.33958289007439        0.53688611828469       -4.20974722037462
H           -0.42134142505126        3.27360524208171       -2.69725108177084
H            1.47907978461085        4.67058764457794       -2.03992295598824
C            3.00286890658795        4.28931838508233        0.14790296874299
C            2.35303886739447        1.95771726731355        1.56085553794635
N           -1.98287956248656        0.33482477576969       -0.63829994566712
N            0.73769655953689        1.39768848839119       -0.17258195112948
C           -4.02054336065848       -0.69798800360498        0.16697565192080
C           -4.98740225604777       -0.71458549187039       -2.46991760250739
C           -5.69167962754096       -1.34309515186446       -1.47035580388843
C           -5.21857304451930       -1.31000812152524       -0.16260230649514
H           -5.36460526295038       -0.68521913263546       -3.48068559297138
H           -6.62789261769669       -1.83364268574540       -1.68844477641029
H           -5.80998898621595       -1.74078409005866        0.63138201055857
C            3.70776285664672        3.95331726271947        1.28221253337989
C            3.37148113482417        2.80531236725556        1.98331734418216
H            3.22791755416755        5.19402582263038       -0.39626598391556
H            4.50452980584577        4.58828010223033        1.63824893710636
H            3.88913231340617        2.56543466877737        2.90009134839563
C            1.99958985955055        0.82554260234877        2.43499178982251
C            0.69662543953754        0.66527488512749        2.89703362099883
C            2.98833600233791       -0.04714856771485        2.88014728425546
C            0.39080393777513       -0.35449031204686        3.77815858988230
H           -0.08057344789550        1.33922401914533        2.56635489541058
C            2.67361270519161       -1.08246624233315        3.74082339671799
H            4.00614675937443        0.07927670568915        2.53575854913585
C            1.37494588798639       -1.23547622904826        4.19340765764765
H           -0.62477109376960       -0.47330781790980        4.12145117866118
H            3.44517759343209       -1.77074923379897        4.05223869452888
H            1.12487825321083       -2.04500263266509        4.86145857585097
C           -3.68232136167850       -0.54369199918938        1.59199019701320
C           -3.69806494108876       -1.63682759387926        2.44996399061781
C           -3.43822811638023        0.72503314812403        2.11330314970866
C           -3.45776198534220       -1.46705662114224        3.80088029129785
H           -3.86629011247099       -2.62448714706749        2.05041073219022
C           -3.20363914222522        0.89179735929522        3.46371246781202
H           -3.44346913170224        1.58399737233063        1.45548783587621
C           -3.21245250104499       -0.20439564876267        4.31165077672242
H           -3.45542707894084       -2.32596270165654        4.45461629787760
H           -3.01370852595280        1.87997843460437        3.85869536130184
H           -3.02864037058639       -0.07059141357956        5.36828308445717
