57
 energy: -99.547906284817 gnorm: 0.000729498178 xtb: 6.5.1 (b24c23e)
Si           0.55485560278564       -1.35415045580017       -0.09042045106980
O            1.70814880177631       -0.22736193619759        0.13367939223393
C            2.87621223759871       -0.25735050156867        0.91726822149232
C            3.96855503286779       -1.05753112503827        0.25536582207221
H            2.64196820216477       -0.69937689196384        1.89266214765935
C            4.04031531616121       -1.14348830821595       -1.12719009624083
C            4.92492956152799       -1.70184535542854        1.02829207622413
C            5.05017519500672       -1.87055151510872       -1.73149608844520
H            3.28749093731068       -0.65668205446449       -1.72887181894803
C            5.93894258938401       -2.42183931571921        0.42357510033256
H            4.86400853078005       -1.64865239492778        2.10557661183543
C            6.00353138756210       -2.50795052364422       -0.95718083262487
H            5.08955810172913       -1.94067011136868       -2.80848365908550
H            6.67614018500631       -2.92494477535369        1.03182052585014
H            6.79157672654089       -3.07705745429404       -1.42790611596015
C            3.33090948938228        1.20203690769672        1.11633800412319
C            2.30789648665030        1.96900458461845        1.79288332461152
H            4.25129423567938        1.20711026573238        1.70484310883582
H            3.53388371478520        1.64717885576196        0.13863220580708
C            1.42569954953318        2.56244409399657        2.34171304269723
H            0.67301988221690        3.10896495825637        2.82599696371856
Cl           0.49562309899067       -2.68306443208823       -1.64420461437403
Cl           1.21871341183548       -2.76238748330315        1.36529520424880
O           -0.81794280357413       -1.08901734195137        0.91861279460352
O           -0.20262725849192       -0.17896631598155       -1.32160672457405
C           -2.46181728979155        0.35008060338403        0.01742887016541
C           -1.45715970746758        1.40056406620009       -0.18636650339229
C            0.57466912494392        1.98552014509198       -1.21707475695614
C           -2.94646094921518       -1.89477848694089        0.58732392251512
C           -4.29785156462388       -1.73640616770119        0.28378770421126
C           -3.77967325826046        0.57166923938076       -0.28455477896844
C           -4.75392394540119       -0.45666569299926       -0.15313156015017
C           -1.63310616694473        2.68812412955841        0.25626497170686
C           -0.66320785170771        3.68750825093514       -0.01077832878690
C            0.47504216149102        3.31101669905521       -0.77988167071858
H           -4.07623813090835        1.53747041842670       -0.66080881953652
C           -6.10370322551627       -0.27052698725416       -0.44627157135547
H           -2.50942283427303        2.93184888931658        0.83508072084431
C           -0.77609276565604        5.00369641588253        0.44603712469086
C            1.45868041202699        4.27529547715249       -1.06641221880862
H            1.40322117409813        1.62170659172585       -1.79972722935951
N           -2.07947274086729       -0.86692692503064        0.48001321649309
N           -0.35833637589268        1.08213974869408       -0.91160346205428
H           -2.52494447505187       -2.82108778009178        0.93863196441058
C           -5.22934075201573       -2.78904157500082        0.40117600323157
C           -6.99748985016343       -1.31874513497286       -0.31575014931208
C           -6.55504506665357       -2.57232110571821        0.10472257059958
H           -4.88421326310128       -3.75770121419198        0.72641517677106
H           -6.44341944703174        0.69972107207294       -0.77651354503533
H           -8.04133643261905       -1.16695946254420       -0.54297662694867
H           -7.26361519261659       -3.38152643644832        0.19813283556356
C            0.20799682365243        5.92853289598474        0.15637394630270
C            1.32114430324380        5.56228550137127       -0.59835087260253
H            2.31913894280295        3.98951128713292       -1.65108337714388
H           -1.63953896155692        5.28695181583203        1.02948181748345
H            0.11597531043630        6.94194327587077        0.51618028770008
H            2.08123177942973        6.29715207218123       -0.81628980658271
