57
 energy: -99.544697162015 gnorm: 0.000744313107 xtb: 6.5.1 (b24c23e)
Si           0.24217828573292       -1.11216197631323        1.36235040937125
O           -0.53349129553729       -2.20796363674015        0.46554878985511
C           -0.40789363214975       -2.53652807936331       -0.90209732862168
C            0.93935344023821       -3.15017278746494       -1.17417498742208
H           -0.51800835045487       -1.62340402850967       -1.49719236974743
C            1.48623996702697       -4.05223919692331       -0.27143475926230
C            1.65678155834481       -2.80332591054000       -2.31020211472890
C            2.73741454818014       -4.59576691669337       -0.49967505579024
H            0.93474134506876       -4.30763454755210        0.62109473804106
C            2.90626084289670       -3.35145118763269       -2.54055717629720
H            1.23720526196972       -2.09439861764489       -3.01008873472412
C            3.44931373013705       -4.24718067310305       -1.63500546180339
H            3.15883267805065       -5.28954845847728        0.21232304728845
H            3.46056163056362       -3.07221716408614       -3.42511006941041
H            4.42814484619374       -4.66807993201274       -1.81159903129546
C           -1.55476038704445       -3.50373139384744       -1.24337559116764
C           -2.81581870344934       -2.79363828189374       -1.25089057677405
H           -1.37212133818534       -3.94680738147041       -2.22568149820483
H           -1.57945008352111       -4.29522070802533       -0.49145526094467
C           -3.81651043746986       -2.13711977454606       -1.25736567909654
H           -4.71344166763586       -1.59317244729935       -1.26307719780906
Cl           2.25139213590634       -1.03250632013180        1.78866452869680
Cl          -0.33524625014100       -2.02977889688493        3.15000817142315
O            0.66284910371154       -0.15730577269613       -0.32660899506800
O           -0.60435407675033        0.32355989213795        1.78128466450620
C            0.34154117450081        2.11423471670318       -0.07401214242168
C           -1.09294752268926        1.81966631502195        0.03319990697894
C           -2.78522236224265        0.48974309862064        1.02511889842920
C            2.49657871966385        1.22256571176820       -0.39791113557933
C            3.07888971777079        2.49615186420539       -0.35993339070283
C            0.84217052467938        3.39149939060790       -0.04869563449651
C            2.23299987820697        3.62849691586911       -0.18384205123113
C           -2.01979200482003        2.44309362383706       -0.75730309255592
C           -3.40081890847166        2.10175104375878       -0.68307611324968
C           -3.77434247642746        1.07891089745142        0.24009399143313
H            0.16761662282873        4.21928192072009        0.09911204567225
C            2.79802103182167        4.90754373605182       -0.14832403898637
H           -1.69199394907985        3.18223896554514       -1.47043660530021
C           -4.37614967766314        2.70300847831379       -1.47525107845190
C           -5.13183243180433        0.70342650796925        0.32814562082142
H           -2.98120893202040       -0.28993631836575        1.74059965118491
N            1.17951765852417        1.06015494940776       -0.25691286913549
N           -1.49899532008566        0.88416122928303        0.92710483045178
H            3.07115438146443        0.32148696302207       -0.53192847053685
C            4.46637389691493        2.68925298675134       -0.49238244661056
C            4.16256312147602        5.06844046500660       -0.28011903418491
C            4.99241068989580        3.96029351042358       -0.45025392122920
H            5.10337593966074        1.82811994185400       -0.61911838688828
H            2.15437467909767        5.76377851159919       -0.01373669830905
H            4.59250118801330        6.05794480220085       -0.24923061854924
H            6.05774978455644        4.10417911484221       -0.54843206771959
C           -5.70142155911726        2.31589574180787       -1.36829739474619
C           -6.07129143668577        1.31884563997838       -0.46718698023808
H           -5.41347862926939       -0.06782968274949        1.02823260146505
H           -4.08759305925256        3.47436090601602       -2.17368552943770
H           -6.45124800320368        2.78710377751227       -1.98474218795040
H           -7.10884688792368        1.02746547267959       -0.39465611893961
