57
 energy: -99.546313286080 gnorm: 0.000538387690 xtb: 6.5.1 (b24c23e)
Si          -0.14092915986894        1.72213207021174        0.53265456524264
O            1.07462760137160        1.57242334344996       -0.51636414403292
C            2.41943379940293        1.98074062862562       -0.50613306037432
C            3.28433935774451        0.77433074044303       -0.77849682249726
H            2.66518814804962        2.41342528675341        0.47205467971840
C            2.81743742695438       -0.23761870717831       -1.60793002420262
C            4.54772130668922        0.66272973137029       -0.21449406348945
C            3.60181470950844       -1.34601545266202       -1.86917037437325
H            1.82935433007470       -0.14913080060902       -2.03376372232906
C            5.33493318577595       -0.44350050048260       -0.48322812295114
H            4.91138173017807        1.44373768378373        0.43786745283176
C            4.86397580422373       -1.44930000898542       -1.31009597035232
H            3.22802674840134       -2.13183452302129       -2.50938274017530
H            6.31767182416746       -0.52282703106064       -0.04178810091471
H            5.47754341449621       -2.31378628983855       -1.51598944350103
C            2.62346707516930        3.05359462618078       -1.59309938647355
C            1.83974814069160        4.22993643195253       -1.28201437052004
H            3.68427933817169        3.31064215716742       -1.64777391741998
H            2.30340708273870        2.64287936821009       -2.55410216047033
C            1.16030937219900        5.16643663432373       -0.97767736650472
H            0.57001345450323        5.99574773258560       -0.72557941780582
Cl           0.91762234066883        2.65697893526857        2.14948319956535
Cl          -1.63653057338911        3.13092844399841        0.54428980694602
O           -1.06198796418187        0.79811350927448       -0.81121391578237
O           -0.38188024034945        0.31785047881760        1.53370724378339
C           -2.08623916134436       -1.11572989489531       -0.01542046468337
C           -0.73765164773801       -1.62340932150148        0.27003124647224
C            1.33796877320861       -1.21518008425336        1.33125486609877
C           -3.36693643042405        0.70666197297459       -0.78396506297672
C           -4.56399583566011        0.01349936251679       -0.56723609730308
C           -3.21721203437131       -1.86015058614809        0.19750695725744
C           -4.50228408832406       -1.32234216798460       -0.07473083883747
C           -0.28222596238494       -2.82237726320056       -0.20660211346197
C            1.04420354890371       -3.26432638925599        0.06545251903714
C            1.86859291098197       -2.41752142063330        0.86481063024828
H           -3.12608315653213       -2.85551139303595        0.60138265518414
C           -5.68693586357599       -2.03425492310222        0.12999520966027
H           -0.92984475582010       -3.42464747914122       -0.82311605865779
C            1.56158963958296       -4.46294653014019       -0.42144590900513
C            3.18759127212614       -2.82147933940320        1.15335014149201
H            1.89519910373099       -0.51705056460427        1.93195615568741
N           -2.18407172733239        0.13934565941349       -0.52579768160417
N            0.07205442542587       -0.86059822842836        1.04376578124746
H           -3.33313521931060        1.71529067439381       -1.15944969028032
C           -5.82216616663912        0.58983477807770       -0.82723277507803
C           -6.90781223054615       -1.44593360255376       -0.13754147426509
C           -6.97135842925259       -0.13605739940638       -0.61158037147053
H           -5.86580597185072        1.60393133801195       -1.19170909557715
H           -5.63532884225757       -3.04661472725915        0.50162833977720
H           -7.81888606162985       -2.00143238097264        0.02402212136013
H           -7.93356312080022        0.31101166197105       -0.81061678859603
C            2.86205449553863       -4.83443395008673       -0.12649320064127
C            3.66643787500524       -4.01364581451048        0.66113532675966
H            3.80910051479994       -2.17975847338177        1.75721889299228
H            0.93656969849172       -5.09905334118379       -1.03042397619163
H            3.25425914227532       -5.76488408072085       -0.50739182452095
H            4.67760605233648       -4.31761358014893        0.88628175596414
