57
 energy: -99.538580635704 gnorm: 0.000549447633 xtb: 6.5.1 (b24c23e)
Si           0.78481005579456       -0.42270454362172       -0.09359948176930
O            2.25728341361980       -1.07955086623563       -0.12631377280824
C            3.42419522282003       -0.91802425911784        0.64140984027315
C            4.63189744841212       -0.96626560266209       -0.25801448517035
H            3.38879993436440        0.03994227412811        1.17184575619839
C            4.63425607839063       -1.77236714743429       -1.38823979441395
C            5.76655505964946       -0.23104824056919        0.05875199669778
C            5.75739398328091       -1.83864388026048       -2.19353872011917
H            3.74518209198875       -2.33183515494188       -1.63580427818882
C            6.89110974894912       -0.30416352534507       -0.74377044684318
H            5.76446394535666        0.40267698589823        0.93442316016192
C            6.88864261467480       -1.10832507917863       -1.87120150259663
H            5.75066001507152       -2.46562146522243       -3.07321062533052
H            7.76977523952406        0.27139038085271       -0.49112787084168
H            7.76676165077120       -1.16321980087083       -2.49802791950163
C            3.49541023056712       -2.06472300230039        1.67152622042136
C            2.37166911538315       -2.00375546975705        2.57970754954462
H            4.43311616536838       -1.98448680513793        2.22716843399976
H            3.47878245988545       -3.01557530068087        1.13203524748063
C            1.40790531235726       -1.91482270199614        3.28335919155165
H            0.58131373236397       -1.83988262288962        3.92418730983219
Cl           1.30842571001278        1.19485359423954        1.28881715696783
Cl           0.22056991410303       -1.97875600411385       -1.46485846506871
O            0.07010979150933        0.68587243837039       -1.21810084251493
O           -0.57797950604789       -0.68326813577188        0.94077382591446
C           -1.91502579142057        1.42772963237540       -0.23217931566445
C           -2.44342013752680        0.05002518749298       -0.25887738975012
C           -2.20707849225469       -2.21955751963823        0.36138062778293
C           -0.16768719645022        2.93691455706305       -0.74067031785557
C           -0.89107991192805        4.02337053001828       -0.24528477187023
C           -2.68278054296243        2.45351806905226        0.25005377698249
C           -2.20023059523422        3.79166177469919        0.26934081923230
C           -3.64930687664274       -0.21810061794691       -0.84738063092940
C           -4.18579348073988       -1.53543357996662       -0.86303221697071
C           -3.42128041921209       -2.56238363084738       -0.23560900027242
H           -3.66042313676088        2.23602242093040        0.64934117534541
C           -2.94117259418336        4.86127245998350        0.77068040942170
H           -4.18715161452242        0.58015166805273       -1.33320282578743
C           -5.40305651375006       -1.85380314489915       -1.46435452750596
C           -3.91518645337982       -3.88267568215463       -0.24240937273796
H           -1.56008349700022       -2.93632593150299        0.83612409524551
N           -0.68608358264556        1.70009689978697       -0.73757750361128
N           -1.76862327784467       -0.95245754690823        0.35735651045488
H            0.83196848764787        3.02437184324536       -1.12928409808238
C           -0.37325862597371        5.33416126437234       -0.23218912324707
C           -2.41023051620523        6.13850980192842        0.76955448153068
C           -1.12902286925127        6.36825585902387        0.27007825150864
H            0.62014127643114        5.50729516173729       -0.61454438877806
H           -3.93137654590500        4.68066298375531        1.16136226663983
H           -2.98874315018412        6.96148269072646        1.16016600809403
H           -0.72710150770747        7.37027350713099        0.27981135614069
C           -5.86661311696248       -3.15660371872211       -1.45280886128836
C           -5.11955958191948       -4.16456037771572       -0.84401801132987
H           -3.33206333997493       -4.66050129486868        0.22419161743118
H           -5.97705910186756       -1.07286914565007       -1.94018951323611
H           -6.80935972340597       -3.39613270489287       -1.92012509246884
H           -5.49324199848919       -5.17747848102962       -0.84755091829018
