57
 energy: -99.546373894961 gnorm: 0.000912338102 xtb: 6.5.1 (b24c23e)
Si           0.36119693306635       -1.69163415760697        0.36856231849376
O           -0.87764839012761       -1.73619199253960       -0.66249374756875
C           -2.12311860451021       -2.38728366487848       -0.63131285546019
C           -3.21577692185220       -1.35710127787516       -0.77894573841747
H           -2.23488921975154       -2.91932729869979        0.32206358904083
C           -2.98395873868664       -0.19103845292987       -1.49691001663328
C           -4.46303006180321       -1.56654824839301       -0.20606164962233
C           -3.98325990667578        0.75517021167647       -1.63619045488471
H           -2.00976097939796       -0.03105272596549       -1.93322839658409
C           -5.46513181678064       -0.62361087448380       -0.35419322117446
H           -4.64489215815034       -2.46933009587663        0.35937152515931
C           -5.22698397702365        0.53893463196629       -1.06814369753168
H           -3.79141142326667        1.66348913537676       -2.18875406841022
H           -6.43279417313979       -0.79408155676836        0.09503781126809
H           -6.00750693751337        1.27741613009743       -1.17724403904383
C           -2.17666318596047       -3.40916513648483       -1.78342093467678
C           -1.18773516444544       -4.44498300062865       -1.57278203100547
H           -3.17681799383808       -3.84737516443184       -1.82736423098399
H           -1.97087997844484       -2.88931815457969       -2.72251341236650
C           -0.34252969949902       -5.26145729580078       -1.34957437242367
H            0.39267006177052       -5.98766652842902       -1.17009901683912
Cl          -0.48945458602092       -2.79847974726202        1.99730755022271
Cl           2.05006151727833       -2.86725605600820        0.31066711500339
O            1.10371049609558       -0.60983674301505       -0.96480766537132
O            0.39225089163256       -0.28886144965937        1.39666040276951
C            1.97099152846297        1.35196587264815       -0.09872070115620
C            0.58476186348139        1.72567776370473        0.21104745787145
C           -1.46557308343051        1.07408165861099        1.19638187945673
C            3.38799599566096       -0.29190320521475       -1.01505329747977
C            4.52352293643428        0.49221148386080       -0.77807222306378
C            3.03636674375949        2.17941940752834        0.14367779280885
C            4.35744543887352        1.77687481212034       -0.18430271319461
C            0.03111300591636        2.90243001186115       -0.21474882464763
C           -1.33557753198845        3.20701041708328        0.04566621521196
C           -2.09654348774403        2.24314920212513        0.77221626993983
H            2.86662343906771        3.13627192756378        0.61036252649626
C            5.48044367343789        2.57338530890324        0.05409507817847
H            0.63183520608174        3.59058371836016       -0.78737835089159
C           -1.95081981377036        4.37765648988295       -0.39337594176946
C           -3.45790261865910        2.50176800199255        1.03160443048226
H           -1.96899773272032        0.29861038899275        1.74759593552832
N            2.16779450065413        0.14251017185768       -0.68518081015602
N           -0.16396087582695        0.85492858450900        0.93023874298743
H            3.43574518154176       -1.27155841040325       -1.45887958803011
C            5.81948075042505        0.05369597392940       -1.11088978216498
C            6.74064162063445        2.11830408172275       -0.28200855568998
C            6.90588373375753        0.86091392391533       -0.86196569249560
H            5.94178454022839       -0.92112648059682       -1.55561641578245
H            5.35043034836213        3.54534066208913        0.50581853489460
H            7.60380697520753        2.73788229595199       -0.09287790134136
H            7.89770774614966        0.51914631767014       -1.11661121805970
C           -3.28961209622284        4.60648605361589       -0.12597972193815
C           -4.03500936985885        3.66802765446598        0.58488142519947
H           -4.03279244186960        1.77044396976427        1.57688436443130
H           -1.37195761480742        5.10321360897239       -0.94523607142831
H           -3.75836920085346        5.51536856023431       -0.47038943184613
H           -5.07828534334130        3.85966928548079        0.78597682468309
