63
 energy: -105.883522046094 gnorm: 0.000654124904 xtb: 6.5.1 (b24c23e)
Si           1.33010681632601        0.18380762420548        0.56643475432659
O            1.77702132011081       -0.97747140110301       -0.46598140909114
C            2.89585502251800       -1.83466112066474       -0.39562675382983
C            4.18101755879675       -1.05023148154240       -0.43159917044509
H            2.84439154003692       -2.40534389774858        0.54011674525915
C            4.29873866740243        0.03682866253873       -1.28717948128954
C            5.24366219219305       -1.38826649518372        0.39346460094879
C            5.46267571875320        0.78274627516503       -1.31153788172109
H            3.46106988388278        0.30702960744676       -1.91295717383214
C            6.41045532654389       -0.64529490339408        0.36323354960169
H            5.14810900100682       -2.22318210935927        1.07186511183574
C            6.52138133052458        0.44161033058716       -0.48715224633166
H            5.54189922667612        1.63496794869203       -1.97041597149435
H            7.23080093206188       -0.90847217342882        1.01462888128256
H            7.42858831484778        1.02772386714586       -0.50108404604347
C            2.80893800699883       -2.79531356788530       -1.59392876903940
C            1.58958040588244       -3.57227164401669       -1.54590529301691
H            3.67693593647838       -3.45934199216324       -1.57949692118915
H            2.82476744190506       -2.20723060226395       -2.51454015788896
C            0.56585599955569       -4.18840123250948       -1.48232761562545
H           -0.32740773443270       -4.73730770308443       -1.44073624478032
Cl           2.17988360605383        2.05795013629629        0.77392472978489
Cl           2.33251093821433       -0.56467225549718        2.32403744833912
O            0.35160663570528        0.79429537358477       -0.89505733271224
O           -0.17355729262655       -0.05952159209211        1.39226508662238
C           -1.79138849668740        1.34221164102523       -0.20557191604236
C           -1.98306133884344       -0.11849553689781       -0.09571757282158
C           -1.17386590683753       -2.09163809932677        0.93683472976324
C           -0.27165437638027        3.01538394779617       -0.88032210756347
C           -1.20025540122798        4.02121689863924       -0.60126741111725
C           -2.74748527784511        2.26990305002342        0.13484790928179
C           -2.47326504539147        3.66219160181318       -0.07270216562884
C           -2.92044285551802       -0.82090442541909       -0.81248762747835
C           -3.03548081102504       -2.24171963396042       -0.61753948482203
C           -2.12980994213394       -2.86888568727810        0.28841348152565
C           -3.39246837296760        4.67626877150515        0.21114760101586
C           -3.98336920097620       -3.02902806737877       -1.27070838377983
C           -2.21373717605873       -4.26308721019951        0.49753386566775
H           -0.42978047083859       -2.49495296895446        1.60110821474659
N           -0.57580236206504        1.73173254290152       -0.67552618424065
N           -1.14015739124869       -0.76240880038607        0.75110379369020
H            0.72190050657639        3.21856956039295       -1.23928259938229
C           -0.89557580687555        5.38132629649096       -0.81429082274268
C           -3.07096958256317        6.00210931309103       -0.01087847011668
C           -1.82170407760174        6.35255566638425       -0.51934800894829
H            0.07651009079733        5.63903916122767       -1.20370996582005
H           -4.36480726225286        4.42774290045601        0.60453915971316
H           -3.79339195085238        6.77170854809436        0.21430096397591
H           -1.58311578257051        7.39288842308813       -0.68103306815347
C           -4.04658692094871       -4.39468538278603       -1.04791473827505
C           -3.16068450751354       -5.00738758123624       -0.16489353391514
H           -1.52056430202894       -4.72549056213815        1.18302434112530
H           -4.68256776813551       -2.57718879653048       -1.95549753641292
H           -4.78749173614644       -4.98666562507512       -1.56295381490811
H           -3.21947913584680       -6.07355400963202       -0.00224116515537
C           -4.04428323221844        1.85058340747189        0.75395898189709
H           -4.88158286043282        2.08411985624757        0.09702743283821
H           -4.05241886096216        0.78519838870690        0.96285346637154
H           -4.19179089795908        2.38672544798872        1.69029095784732
C           -3.79454149304723       -0.14269971421360       -1.82109651749360
H           -3.70937821639480       -0.65265206834325       -2.77946932554618
H           -4.83922771047277       -0.17784243197542       -1.51281660879727
H           -3.50721186187981        0.89518052470639       -1.95778231000656
