63
 energy: -105.886284350603 gnorm: 0.000625168719 xtb: 6.5.1 (b24c23e)
Si          -0.17618678892653        1.96555521470892        0.98982940522003
O            1.14244664046891        2.41407464310912        0.17825373678550
C            1.51585734362338        2.29334907731398       -1.18099022230197
C            2.42380198957231        1.10361925157261       -1.35312129966545
H            0.61738199597913        2.16448289043704       -1.78855548871092
C            3.55225362702415        0.96944450211100       -0.55367330849940
C            2.14922745703453        0.13265490288790       -2.30566039578834
C            4.40952657171377       -0.10163892461493       -0.72805048816684
H            3.75021142387446        1.70825196803326        0.20830118789138
C            3.00452123264508       -0.94229289258116       -2.47492849474355
H            1.26319761278016        0.22443169138886       -2.91712998602245
C            4.14176711432104       -1.05571074331961       -1.69490446644357
H            5.29206814832840       -0.19101166869872       -0.11257320431344
H            2.78723446854309       -1.69002426457437       -3.22413654692392
H            4.81368868331934       -1.88930363613043       -1.83369146217986
C            2.22046740762988        3.59791474905056       -1.59159856893730
C            1.27618451284611        4.69474536796450       -1.60344971811146
H            2.65907765906304        3.46969608937667       -2.58496240271079
H            3.01507050264930        3.81300883084022       -0.87408673716357
C            0.45623778740379        5.56562690248979       -1.59933793183413
H           -0.24227075825979        6.34782896243208       -1.59655167729123
Cl           0.50070846648481        2.90397284609421        2.73202966058629
Cl          -2.01045255651900        2.87187419495197        0.92327656327434
O           -0.72196536325515        0.93422679682555       -0.64514483423930
O           -0.25323203301069        0.43723675799262        1.78040569814219
C           -1.57989855188269       -1.09748728688728        0.02569501005153
C           -0.17789660039491       -1.42864326895590        0.35523095912554
C            1.69491152892130       -0.81072503003798        1.67505018736859
C           -2.97075734105750        0.55374416424155       -0.91855987715793
C           -4.09947419324149       -0.25575405081988       -0.76065111346866
C           -2.64288375794826       -1.94024227041623        0.25672238396901
C           -3.95378185929487       -1.53458217353966       -0.15254929872409
C            0.51589582620089       -2.46011597237137       -0.22559217623456
C            1.86080343315816       -2.73778441812548        0.20528497201526
C            2.43912996862066       -1.88043906227438        1.18755707729943
C           -5.09177949818898       -2.33273267003333        0.01065513492750
C            2.61380079305652       -3.80344555551017       -0.28227140982506
C            3.75467437803445       -2.13097457202430        1.63471096691665
H            2.07063303275278       -0.09427435641785        2.38438164127011
N           -1.76950985731668        0.13204906802142       -0.52466151656451
N            0.42154055431420       -0.62985845808524        1.27590730936699
H           -3.01699519935763        1.54648001906391       -1.33194891082285
C           -5.37535361893026        0.17693050600591       -1.17431847020272
C           -6.33057000700555       -1.88666252622009       -0.40538540982212
C           -6.47172562785037       -0.63113320103883       -0.99462390887530
H           -5.47075755256551        1.15240726568153       -1.62443802714508
H           -5.00570245713631       -3.30749668412058        0.46268484356785
H           -7.19763370919938       -2.51529728442503       -0.27086880256134
H           -7.44808653105638       -0.29507069965333       -1.30936280002040
C            3.90063165159176       -4.03266331850551        0.17785046997310
C            4.46623564553981       -3.19481223806005        1.13453911978279
H            4.18143764350548       -1.47600664627402        2.37787346600213
H            2.19530491383176       -4.46813057036131       -1.02064423643979
H            4.46549669275161       -4.86725022754487       -0.20863490894322
H            5.47014882318117       -3.38398927364265        1.48466355019652
C           -2.45250917310870       -3.24675100182879        0.96169676789725
H           -2.68301338892187       -4.08122092990159        0.29998781348972
H           -1.43224611506784       -3.35616309994793        1.31669983442711
H           -3.12345041206408       -3.30091756360982        1.81782779887170
C           -0.09070562291638       -3.27950052582113       -1.32200845761371
H            0.57611927459192       -3.28198823443935       -2.18288785781255
H           -0.23292623617548       -4.31169444509147       -1.00285010103551
H           -1.05065799470510       -2.87684591668990       -1.63092904110176
