63
 energy: -105.885794640784 gnorm: 0.000278031911 xtb: 6.5.1 (b24c23e)
Si           0.68154012007953       -1.43931451691380        0.03765541381740
O            1.86614034772805       -0.33031321018465        0.12641440213190
C            3.04655902446323       -0.28898418869537        0.88828253769280
C            4.18414486272612       -0.97739171188942        0.17819018584264
H            2.87143091501504       -0.77897002955914        1.85293703001142
C            4.21424921769245       -1.05020386135281       -1.20655196739767
C            5.22648586158350       -1.52853945057512        0.91161215015627
C            5.27086767896441       -1.66785915244022       -1.85169464357326
H            3.39391159259036       -0.64001119318013       -1.77599971350875
C            6.28535141324270       -2.14036824831526        0.26622082325178
H            5.19813096836303       -1.48711376065199        1.99083883154442
C            6.31039311491176       -2.21018221150356       -1.11681247961572
H            5.28052570365562       -1.72712929934701       -2.93014330921630
H            7.08970548773561       -2.57119732480202        0.84413356831267
H            7.13524735702673       -2.69309739055395       -1.61972129158739
C            3.38765873011781        1.19560633798841        1.12763185345381
C            2.32850978393171        1.84953533813221        1.86421558071767
H            4.32333979872970        1.25751981597064        1.68810154221456
H            3.51941405895635        1.69059134638761        0.16179037264807
C            1.41864803299307        2.34831797720224        2.45971010755808
H            0.64521202805127        2.80180431252684        3.00296171390886
Cl           0.52087699977255       -2.89587319211230       -1.39293197152381
Cl           1.37719881957757       -2.75349457371547        1.57337064616005
O           -0.63973167474175       -1.03313202625606        1.07699520985627
O           -0.09530155238165       -0.35879898654482       -1.27104944853468
C           -2.32833012402667        0.19554004202815       -0.00538284991345
C           -1.32392089733741        1.26645041589876       -0.17413034198689
C            0.69870621209488        1.80615415815196       -1.25535171877396
C           -2.70640454653998       -2.00873217740238        0.78074330118117
C           -4.03190668298243       -1.97740494030672        0.35578660531379
C           -3.60771033658153        0.28531037597913       -0.49837801000259
C           -4.52227757471859       -0.80608651905198       -0.29394701847327
C           -1.44684654011390        2.53331306234550        0.34696802830400
C           -0.44652301002601        3.51292972229773        0.03947949948330
C            0.63594750227451        3.12470229912927       -0.80062856255270
C           -5.85457168245521       -0.77549530488855       -0.70519113005741
C           -0.48725900010146        4.82668446700552        0.51493765593662
C            1.63129754379768        4.06671058110567       -1.13005323210946
H            1.50747465519287        1.42707266271433       -1.85522325043685
N           -1.91206790534656       -0.93529540516623        0.62310075429609
N           -0.24530275272801        0.92508233139808       -0.92459263056035
H           -2.25284225070635       -2.86317547520104        1.25245601692949
C           -4.89662295221535       -3.07696013932851        0.54730790051193
C           -6.68599547489732       -1.86233748169143       -0.49485457923387
C           -6.20250352306474       -3.01182382309494        0.12593915209664
H           -4.51094499315803       -3.96060928728006        1.03059018495417
H           -6.25140395881397        0.10282995350224       -1.18795939786933
H           -7.71481681243382       -1.81803914367465       -0.81747762574826
H           -6.86033577672100       -3.85429670501235        0.27764232927638
C            0.50438777682483        5.72991402422022        0.18179087196349
C            1.56259783704156        5.34833830134077       -0.63948967380123
H            2.44613025205685        3.76153542332687       -1.76835456481698
H           -1.29984630690178        5.14650586239874        1.14722569944076
H            0.45754839627103        6.73930095434579        0.56104730176859
H            2.33021737079316        6.06465347078806       -0.89062448221020
C           -4.05592804420791        1.47753017198026       -1.28578720414289
H           -4.82179333549669        2.03253205703351       -0.74450322216338
H           -3.22767681085524        2.14640678258529       -1.49809135181286
H           -4.48422109786232        1.14888789504444       -2.23143029990742
C           -2.58325785520735        2.88409913048028        1.25614769934758
H           -2.19749012622839        3.28979245243180        2.19007055567763
H           -3.22329043021910        3.64064338474320        0.80281803883659
H           -3.18538843518403        2.00997662020881        1.48503640693327
