63
 energy: -105.883052485039 gnorm: 0.000635369638 xtb: 6.5.1 (b24c23e)
Si           1.27361605320018       -0.16328148060669        1.22597665521081
O            1.79038514026856       -1.43219693768146        0.37283114443317
C            2.34032128365711       -1.50308974807157       -0.92469311226265
C            3.77660726009838       -1.04476988208822       -0.92073744726336
H            1.75125181389037       -0.86691200993928       -1.59275847290043
C            4.57480712319718       -1.24435254109501        0.19700685087955
C            4.31602044620446       -0.43030931437947       -2.04307970716641
C            5.89384809401213       -0.82681437842270        0.19490589832847
H            4.15167629206682       -1.71109847028728        1.07336438178912
C            5.63746285156849       -0.02102997229659       -2.04673734264688
H            3.69524749874001       -0.26921344761996       -2.91357062231802
C            6.42835219712887       -0.21712355376660       -0.92695574675044
H            6.50400177321024       -0.97821538244603        1.07274512604289
H            6.04924730332614        0.45799502319126       -2.92331302301136
H            7.45809212133094        0.10874583303684       -0.92858977194588
C            2.24404227676469       -2.96784737432422       -1.38943473242965
C            0.88068235986156       -3.32157165679625       -1.71941984976174
H            2.88045124680248       -3.10548897271246       -2.26773012322723
H            2.60745448994519       -3.60810257807040       -0.58231952361746
C           -0.25523639311060       -3.56863285603597       -2.00408992804578
H           -1.24476110745554       -3.81569247318373       -2.24800944625840
Cl           2.26068737835103        1.61638336761031        1.50327859076836
Cl           1.83840237304411       -1.00632250760398        3.06747380015077
O            0.58384004256065        0.60092063520221       -0.48700393203712
O           -0.37400911047391       -0.18259646882654        1.70834932305223
C           -1.53894070105899        1.42060921112294       -0.09491796933375
C           -1.93035628184067       -0.00318978690358       -0.04068317299062
C           -1.51481828355145       -2.07923196253635        1.03157805647507
C            0.26089830759002        2.87507447897797       -0.54218624225844
C           -0.56034486413509        3.99594251390568       -0.38773999368496
C           -2.40397997289331        2.46811916996546        0.12293751887528
C           -1.92668797457815        3.80926597200143       -0.03432145273771
C           -2.83056620286043       -0.57637171896711       -0.90346099831966
C           -3.13900025561015       -1.97656713375579       -0.77274913488244
C           -2.44414040910472       -2.72601330601494        0.22365141813460
C           -2.73688842920585        4.93784926601985        0.13151090982102
C           -4.06680144611173       -2.63269766330745       -1.58023633074405
C           -2.70381264281107       -4.10848724714561        0.35622594629588
H           -0.92264795676836       -2.57894217903105        1.77768481611123
N           -0.22843140211547        1.64485598873935       -0.38645859475136
N           -1.30610978907855       -0.75631422051230        0.90165813376373
H            1.31175397743667        2.94586526340726       -0.76447834323353
C           -0.05796573088581        5.30166680054093       -0.55690760362033
C           -2.22094065517836        6.20716189691935       -0.04278232973547
C           -0.88188128818878        6.38774706875623       -0.38459145535536
H            0.98139368246222        5.42714964447043       -0.81625551535984
H           -3.77569092808973        4.82096192257815        0.39443618440408
H           -2.86061443719599        7.06658264553737        0.08860158568568
H           -0.49299632331345        7.38650646870360       -0.51317766253684
C           -4.30858943552082       -3.98892822829949       -1.42626141144183
C           -3.62245946022462       -4.72240608093920       -0.46081697131751
H           -2.16363539881664       -4.66656380036147        1.10424792767658
H           -4.60996975120472       -2.08646586471772       -2.33459090622220
H           -5.03050355724596       -4.47838655692456       -2.06207507964797
H           -3.81447265049331       -5.77994119938584       -0.35683194985072
C           -3.81565241732911        2.22277008755039        0.55608195461669
H           -4.51970483649132        2.56291253766177       -0.20280815958006
H           -3.98957709221166        1.16759217225535        0.74422746354092
H           -4.01730103553027        2.77440717838091        1.47322029853301
C           -3.46177752321282        0.21557149434311       -2.00665945473608
H           -3.30285291291699       -0.29070554222869       -2.95775010780193
H           -4.53641406599106        0.30750458990520       -1.84952365086005
H           -3.03466966391690        1.21153926650628       -2.07303371194216
