63
 energy: -105.885943829765 gnorm: 0.000768919757 xtb: 6.5.1 (b24c23e)
Si           0.29638158873716        1.98850624891538       -0.80843220369084
O           -1.07687710537590        2.32565197779684       -0.03698161494175
C           -1.54933662880072        2.07277388345798        1.27150323430257
C           -2.71391598093215        1.11977093129607        1.19457682437343
H           -0.74537996403809        1.63419427623773        1.86570445167361
C           -3.74974607693827        1.36438322881076        0.30120564188502
C           -2.76566646499476       -0.00680955813194        2.00288212936262
C           -4.83385737169490        0.50887941880514        0.23923375793551
H           -3.69098396829427        2.22445463592651       -0.34878355174088
C           -3.85145435151952       -0.86316785072872        1.93946623906606
H           -1.95304269512673       -0.20945446112440        2.68633411842607
C           -4.89119794849973       -0.60147788280719        1.06518820704684
H           -5.63923564856406        0.71013631526841       -0.45156801496290
H           -3.88702427449593       -1.73642766525504        2.57443146007963
H           -5.74114096376562       -1.26587841010374        1.02201737241238
C           -1.96293677309071        3.41552472394690        1.89874709471432
C           -0.79683394609018        4.25245374243677        2.08567336573963
H           -2.45003873907433        3.22762127258224        2.85927628051530
H           -2.66743329151394        3.91696463936762        1.23147975970768
C            0.20323647543248        4.89853690732467        2.20278625906765
H            1.06481651531967        5.48594664742812        2.31350792989854
Cl          -0.32162919730334        3.05170837323863       -2.50226003093753
Cl           2.11248807993043        2.90891730482934       -0.61398270545586
O            0.82097164189233        0.85466195746569        0.76883526551855
O            0.38165013207613        0.50772318532561       -1.69005201435050
C            1.61380726378388       -1.16276908232620       -0.00654740280952
C            0.20149568785018       -1.41853043962122       -0.36063549377275
C           -1.62529275176853       -0.65420641264291       -1.66924067787653
C            3.06029895134684        0.39629866420198        1.00979578146083
C            4.15947804633377       -0.44624627107168        0.81757551672837
C            2.64546156993560       -2.03395862733349       -0.27020418254169
C            3.96848513042325       -1.69420411133554        0.15960635289823
C           -0.54800408023329       -2.43590394938355        0.17263557550463
C           -1.90396426506981       -2.62358354725751       -0.27383011909212
C           -2.42765729122097       -1.70183431990158       -1.22843320147576
C            5.07643527222279       -2.52770985186680       -0.03122785907358
C           -2.71731052554214       -3.66277014177099        0.17204126541430
C           -3.74813556930650       -1.87037333069815       -1.69856772736993
H           -1.95981063642444        0.10954493632248       -2.34908115977949
N            1.84570474162969        0.03281486317925        0.60019757856943
N           -0.34845115779745       -0.55347698933337       -1.25293265591067
H            3.13923919782275        1.36795910561072        1.46615628439496
C            5.44923433400171       -0.07752066503212        1.24948463460192
C            6.32937852763579       -2.14504354031987        0.40531096812694
C            6.51531837435521       -0.91899310599680        1.04209272308377
H            5.57917684014177        0.87582147789995        1.73688770466600
H            4.95569703334695       -3.48047793546180       -0.52074220809340
H            7.17253116802118       -2.80076741792447        0.24969147154961
H            7.50224786931404       -0.63232366323242        1.37230619384271
C           -4.00885635735549       -3.80913650401879       -0.30772903757794
C           -4.51798067477844       -2.91337100101084       -1.24351382106766
H           -4.13239238636399       -1.16871396465813       -2.42171872850806
H           -2.34200024236909       -4.37277134508986        0.89137963865875
H           -4.62096383722900       -4.62465580265329        0.04601858276467
H           -5.52477222574362       -3.04060737203319       -1.61263539017506
C            2.40778296730553       -3.30300677018893       -1.02728245343259
H            2.59975256542532       -4.17113489958243       -0.39722455931590
H            1.38610168146819       -3.35671971532791       -1.39103455864953
H            3.08146562495086       -3.35165783603142       -1.88149085614377
C            0.01120387002196       -3.33440426249189        1.23214653581399
H           -0.65502962675125       -3.34030939486733        2.09371087095838
H            0.09700131265980       -4.35741720535998        0.86653905778298
H            0.99159155468226       -2.99895941370111        1.55702710019865
