63
 energy: -105.883521619907 gnorm: 0.000672997030 xtb: 6.5.1 (b24c23e)
Si           0.15645228731014       -2.04400387028444       -0.45526361959138
O            1.68379261403130       -1.54665437323874       -0.65986125661060
C            2.93333339144894       -1.43193434482494       -0.01797702338210
C            2.90506056124410       -0.29214453418619        0.97366696284131
H            3.62588701532855       -1.17631001907805       -0.83451945832349
C            1.96761467206646       -0.26962239476091        1.99832722344867
C            3.80408943448539        0.76016392161134        0.85554993859364
C            1.91353858064109        0.80334608859045        2.87010335259156
H            1.27197286271302       -1.08648024214501        2.10773332654308
C            3.76103868363027        1.82367793770206        1.73901848068328
H            4.54255658327187        0.74759938122845        0.06659348778470
C            2.80782667637146        1.85259034906135        2.74212735799607
H            1.17375246690548        0.81396342087927        3.65733041513942
H            4.46738095656277        2.63414943736097        1.63747034284865
H            2.76796630232785        2.68807076759592        3.42624050243562
C            3.43339333629807       -2.72971009202827        0.63776284854291
C            3.47782898464798       -3.80189799856703       -0.33276361302536
H            4.43467760955839       -2.54106392043813        1.03551251272879
H            2.77101404591778       -3.01556991670390        1.45554982396368
C            3.48953522370000       -4.65066419539293       -1.17534708567873
H            3.49451564545164       -5.42189550290064       -1.88585547535812
Cl          -0.70646731666515       -3.26875649421761       -1.83761474680763
Cl           0.37835689971120       -3.55283170027632        1.03459610562544
O           -0.74198277146564       -1.16091180862102        0.74129207241834
O           -0.34137287632247       -0.67227604151238       -1.67649964377939
C           -1.85627361507068        0.74336022915247       -0.06732331801606
C           -0.51934240874052        1.26312268495767       -0.42115103806783
C            1.30833691397798        0.92314135570669       -1.86781282438638
C           -3.04691093758175       -1.12671635832850        0.77294631629121
C           -4.26908196253459       -0.49327251935901        0.56465608419020
C           -3.02078263681364        1.41867800950678       -0.34037500275138
C           -4.28204035709005        0.82014403587096        0.00779281679788
C            0.03465181562856        2.40723164283488        0.10141245894172
C            1.29299605078632        2.86591064836214       -0.40705374570466
C            1.91687034012893        2.10355703463817       -1.43529311195815
C           -5.50897807081147        1.45436362153119       -0.18475992852573
C            1.92529275500562        4.02765170587828        0.04428116279594
C            3.14632008108615        2.53782461122309       -1.97174452105084
H            1.74735434005126        0.26311411360502       -2.59585339202619
N           -1.89391612442872       -0.49643671752573        0.48597432992539
N            0.14354448797427        0.52786718867087       -1.35271587631916
H           -2.95304566145960       -2.12334180000796        1.16833116842701
C           -5.49200497600710       -1.12202285137932        0.88506664299041
C           -6.69431084592297        0.82037879926249        0.14720553881395
C           -6.68200460153269       -0.46848368119036        0.67540994208652
H           -5.46961894312944       -2.11912501789629        1.29561201032129
H           -5.54406486781839        2.45169312912855       -0.59236701177864
H           -7.63351176034133        1.32849023451631       -0.00842483045711
H           -7.61414812274437       -0.95389297669531        0.92247506597476
C            3.13037994712026        4.43174716041532       -0.49810043107320
C            3.73930574882278        3.68610561882823       -1.50499679633012
H            3.60886208632067        1.95095211392663       -2.75019784228986
H            1.47067373115390        4.62064886416838        0.82090464697992
H            3.60310462604658        5.33308975742474       -0.13850328132545
H            4.68135025689312        4.01383035864524       -1.91854683683109
C           -3.00615401578875        2.74349310938669       -1.03793151622293
H           -3.36250599772881        3.53203827854022       -0.37552185850387
H           -2.00785224169198        3.00152499269765       -1.37757980694949
H           -3.66603957648651        2.70722012173723       -1.90342624926104
C           -0.63781909133167        3.14791943675134        1.21410521828015
H            0.04986210396963        3.23722479452356        2.05394994376852
H           -0.92095905790844        4.15183095581683        0.89926615758146
H           -1.52764628117290        2.62413045982170        1.55023388403365
