63
 energy: -105.879505029629 gnorm: 0.000474870415 xtb: 6.5.1 (b24c23e)
Si          -0.43836843092090       -1.48240932765383       -0.99477821751936
O           -1.80240843148706       -2.29194480604770       -0.54429265624600
C           -2.23063518275993       -2.59226316649039        0.76312691640970
C           -3.12400209521879       -1.48510457325320        1.26301217529008
H           -1.36007196438532       -2.69021615870285        1.42473509368582
C           -4.10424103711229       -0.96872774163078        0.42362096811506
C           -2.97160380598511       -0.95412663140738        2.53580172864127
C           -4.92064333276737        0.06334901989133        0.85294105697909
H           -4.20203008425412       -1.36693887525417       -0.57533634588322
C           -3.78775141948613        0.07897410078040        2.96425722930982
H           -2.20543293352502       -1.34694142897226        3.18883765509992
C           -4.76349267296730        0.58972463895024        2.12489142872667
H           -5.67837369272382        0.45900788192378        0.19183791933491
H           -3.65895612879229        0.48999661226358        3.95507227023920
H           -5.39697967404776        1.39804760962767        2.45999106430897
C           -2.99302290267626       -3.93015578141021        0.73527174281041
C           -2.08875454206374       -5.02544298856652        0.46035983875015
H           -3.48037844340088       -4.08340471299562        1.70231516408301
H           -3.75385258232026       -3.87953394006387       -0.04681394389867
C           -1.30112644117605       -5.89801045680959        0.23839078606006
H           -0.62215309337277       -6.67098709623893        0.03606581952221
Cl          -1.19838729500030       -1.21272074047382       -2.86968019115444
Cl           0.93293760227803       -2.86446034248016       -0.26217721242454
O           -0.51858522013693       -0.28927554420435        0.28304477217839
O            0.98591045748874       -0.45222327352373       -1.72458229078828
C            0.68197216326272        1.67729507360609       -0.17946510677079
C            1.90783062674693        0.86111949464896       -0.05153336572202
C            3.12066257190254       -0.92279745152380       -1.00401234540416
C           -1.68756071076499        1.66466179746711       -0.09268691483145
C           -1.74516601645588        3.02767201687135       -0.36763226010562
C            0.70532274028167        3.01017825461071       -0.51246505158469
C           -0.53097747584830        3.74306085609787       -0.58635767477486
C            2.89269230714478        1.10593267459248        0.87689691480007
C            4.08793647185262        0.31523878806505        0.85096022243973
C            4.19121056155088       -0.70977620655542       -0.13239758826873
C           -0.59770238540156        5.10845727219356       -0.85969291099886
C            5.15736004040954        0.51114582721541        1.73045669572504
C            5.35719975850998       -1.50013266075098       -0.19251289128040
H            3.11066059430635       -1.70784805651640       -1.73981915659092
N           -0.50131416614706        1.03920672977048        0.01855612465811
N            2.02779657052740       -0.16123752090292       -0.94003334801344
H           -2.56009623235806        1.05163843485474        0.05076952148667
C           -2.97742413131628        3.71207766171970       -0.44497774122489
C           -1.81880924124596        5.75950957099091       -0.92326955462865
C           -3.00452753546891        5.05827047362466       -0.71934159778079
H           -3.88712825399777        3.15592411378939       -0.28199037532234
H            0.30630374166688        5.67343524558675       -1.01964151004803
H           -1.84929184036708        6.81737683494332       -1.13439712551869
H           -3.94919239269426        5.57807327183792       -0.77641845352116
C            6.29054346835143       -0.27504808773368        1.64883003676880
C            6.38770405520564       -1.28128214185455        0.68910939920516
H            5.41718916892353       -2.27848335002848       -0.93654249303572
H            5.10514892348486        1.28483708405619        2.47928505283483
H            7.10662383861634       -0.10881271029490        2.33545010453502
H            7.27808127025959       -1.88985426482346        0.64151314239273
C            1.98902001783149        3.70671620543549       -0.84224393164074
H            2.22153854038749        4.46458508957432       -0.09443952096991
H            2.81740441712149        3.00718467153282       -0.89660824661085
H            1.89483904845744        4.20379156358888       -1.80648918042425
C            2.71731626194188        2.15567992933299        1.92971441013979
H            2.87421004169108        1.71562093922495        2.91348090417062
H            3.44201175337094        2.95909372259354        1.80126757935654
H            1.71844977507486        2.58043257589937        1.89780946492854
