63
 energy: -105.886137088782 gnorm: 0.000676607534 xtb: 6.5.1 (b24c23e)
Si           0.99067664448426       -1.22736271370634       -0.27710406118996
O            1.95741019509453        0.06390425683800       -0.06351685382073
C            3.13774284657649        0.19826997217222        0.69013277946543
C            4.30512244271098       -0.49095360224555        0.03079201307136
H            2.97795725524052       -0.23500518802658        1.68449088084642
C            4.35550793540714       -0.63822874554819       -1.34726409186445
C            5.35325600756682       -0.96960113158601        0.80546116429264
C            5.43368327553571       -1.26693797744949       -1.94423327790702
H            3.53565399837352       -0.27834044759362       -1.95049281511342
C            6.43502292169200       -1.58921015753193        0.20763539397929
H            5.31165746505853       -0.86673791196245        1.88014575100171
C            6.47672456598562       -1.74073556791093       -1.16839400092945
H            5.45578227183464       -1.38928487448776       -3.01700033478544
H            7.24354797775767       -1.96386494857726        0.81797506891555
H            7.31755242724572       -2.23394554858932       -1.63348141833644
C            3.42345996371439        1.70583169422171        0.83336844751554
C            2.37634465612927        2.36291474652849        1.58427603658453
H            4.38091171787920        1.83542135865607        1.34372052354917
H            3.49216529648027        2.14816218425009       -0.16388708097207
C            1.48668331850147        2.87252775546692        2.20060703743252
H            0.72344432127130        3.33469271641721        2.75119574195430
Cl           1.09766559919915       -2.56440761221559       -1.82560398572324
Cl           1.90513850292301       -2.51900546676196        1.16181150028676
O           -0.39574992814278       -1.16800001591902        0.75317698150537
O            0.04544303463154       -0.19131230845382       -1.51001419693465
C           -2.26623666075139       -0.17165496580235       -0.26507424576384
C           -1.47374798803761        1.07480908900842       -0.30852806680249
C            0.41152120068859        2.07688993354798       -1.30529310064475
C           -2.23484313401374       -2.47750782118067        0.28414954274128
C           -3.53445526093119       -2.64904394127523       -0.18490418846013
C           -3.53307243442283       -0.26869845155365       -0.78788945067138
C           -4.22884500986593       -1.52622216087464       -0.72531655100025
C           -1.83338663336777        2.24517001186106        0.31783066069999
C           -1.03959569081321        3.41978307262876        0.10631534283036
C            0.09342962534664        3.31845423445770       -0.75082850540591
C           -5.53704300827331       -1.70004169182672       -1.17633700904046
C           -1.33074906829304        4.65685654521746        0.68871822291481
C            0.88171275573518        4.46052984650572       -0.99669194186430
H            1.27981678379000        1.90965742105546       -1.91808925490413
N           -1.65574078356051       -1.26394614961916        0.26491865144617
N           -0.34579788152905        1.00750918272391       -1.06174572615964
H           -1.63552756476854       -3.27746573701892        0.68302090652345
C           -4.17653201837633       -3.90599736092660       -0.14398880881960
C           -6.14931657087806       -2.94010694580862       -1.11308531229640
C           -5.46402714801561       -4.04077718174309       -0.60355003223344
H           -3.63669581705890       -4.75012637351492        0.25494382815503
H           -6.08721001422963       -0.86326166549795       -1.57533861408376
H           -7.16317147254690       -3.05375579390814       -1.46483792273703
H           -5.95072391893877       -5.00381799223149       -0.56852767344140
C           -0.53679577254686        5.76014936956019        0.43759646455234
C            0.56734224878721        5.66045409073284       -0.40576984702410
H            1.73566956425765        4.37265546730859       -1.65000300025400
H           -2.18378867223804        4.75825430137664        1.34046541581622
H           -0.77539148428961        6.70652103184042        0.89870893132704
H            1.17697995818400        6.53125026782585       -0.59372431589905
C           -4.18639284626207        0.89494662296957       -1.46724659036437
H           -5.04637547198475        1.24272274951044       -0.89534931755024
H           -3.49441576493684        1.72231857386765       -1.58998312824089
H           -4.53805053931902        0.59105544088343       -2.45192294449511
C           -3.01347640515745        2.29350758107010        1.23762076269706
H           -2.70415418027820        2.66733673808740        2.21259891399577
H           -3.78152049828098        2.96215484810739        0.84992160319593
H           -3.44554913599209        1.30635534664770        1.37107109845069
