63
 energy: -105.881547007198 gnorm: 0.000811028369 xtb: 6.5.1 (b24c23e)
Si           0.52017146565911       -1.50398042846403        0.54678430220993
O            1.71154626681013       -2.36380002907550       -0.19011336308757
C            3.10954731783431       -2.23391377319151       -0.11557171675932
C            3.59408963324900       -0.98415815076863       -0.80479358990239
H            3.39968112228591       -2.19911801483812        0.94284980738875
C            3.10224373791156       -0.64499454590094       -2.05928811813320
C            4.53393176331956       -0.16191129198569       -0.19704917776901
C            3.54256139718420        0.50218473772202       -2.69537468935701
H            2.35546942965486       -1.27460212804221       -2.51825274710007
C            4.98001001321245        0.98188621261043       -0.83822005943731
H            4.90792030193165       -0.41613466121011        0.78389012471698
C            4.48495761122483        1.31630594325528       -2.08788460953213
H            3.15119731224452        0.76229603714043       -3.66803339767026
H            5.71246565737670        1.61467699369972       -0.35809549020016
H            4.82975636555198        2.21108236294698       -2.58555044467485
C            3.73802212440722       -3.47705714330840       -0.77412033236106
C            3.44491675736020       -4.66938789826882       -0.00927208490410
H            4.82034634141615       -3.33513208914986       -0.84069826101062
H            3.32869623168626       -3.58270298837675       -1.78174435032582
C            3.18486216378957       -5.63307444638059        0.64990178190624
H            2.95895952418440       -6.48767809830070        1.21399596549116
Cl           1.55387810415097       -0.94093544438770        2.25060932899663
Cl          -0.80951445091937       -2.95396308197401       -0.09488144761627
O            0.42915138202891       -0.20993999429334       -0.59426354093406
O           -0.91174810685897       -0.67505155271338        1.50969565171212
C           -0.98664446514008        1.54624610118018        0.09003806109256
C           -2.11025236820998        0.59002361784778       -0.01058448139932
C           -3.04783396787579       -1.34140776438012        0.96529335419080
C            1.36143291456459        1.83479235234813       -0.06803209469584
C            1.26488995038887        3.17118010029826        0.30521140730472
C           -1.15797055851242        2.84178291052992        0.51533830649315
C           -0.01897286786432        3.71832803042646        0.59751420058062
C           -3.18535475620999        0.75406913511589       -0.85111270841925
C           -4.28250675515758       -0.16443444522485       -0.76678321812579
C           -4.20200201357184       -1.21767148295381        0.18828532180190
C           -0.10792074032953        5.06246218012876        0.95566062199581
C           -5.43098345044293       -0.06348940735301       -1.55829549984453
C           -5.27239161245325       -2.12656838276936        0.31263592506958
H           -2.89566646804491       -2.14390294358624        1.66513581808667
N            0.25571942906748        1.07889988580560       -0.20213600883920
N           -2.04883711387563       -0.46808023329490        0.84250114333443
H            2.29683870679593        1.34621116083899       -0.27070820765208
C            2.40966094833171        3.99137990353744        0.40570554032422
C            1.02859429041097        5.85103244016067        1.03574296019882
C            2.28367320083581        5.31118351447755        0.76655027235114
H            3.37364983974746        3.55816266845934        0.19042894455309
H           -1.06776659974893        5.50418295487534        1.16940841609839
H            0.93834808180377        6.89025974820824        1.31248948512957
H            3.16113672681085        5.93612916295422        0.84041935494637
C           -6.46688311988529       -0.96637737972271       -1.41613969398819
C           -6.38548545938986       -1.99757726378679       -0.48185420041799
H           -5.19323302259893       -2.92371286263075        1.03447085477119
H           -5.51644070383028        0.72717865919770       -2.28599115770545
H           -7.34609143153175       -0.87234833557413       -2.03520513847829
H           -7.20212346977386       -2.69705428338398       -0.38557244563214
C           -2.49973049063439        3.35222925747615        0.94178385208205
H           -2.86061593817957        4.11320434067997        0.24997686844147
H           -3.23284277540696        2.55313122631497        0.99066188071124
H           -2.41927282197423        3.80625663680544        1.92831563857826
C           -3.20706625600301        1.85238559473500       -1.86799624843922
H           -3.36987439583664        1.42891244331940       -2.85820165026025
H           -4.01543189113887        2.55412848816424       -1.66515383439159
H           -2.26730704183810        2.39644974402777       -1.87634718148790
