63
 energy: -105.885922953747 gnorm: 0.000695549541 xtb: 6.5.1 (b24c23e)
Si           0.23213029804392       -1.89188589104319       -0.46275100117010
O            1.73127255175530       -1.26345144579045       -0.54830245447951
C            2.91688175596986       -1.58961117740928        0.14055746225464
C            2.82972437068962       -1.15764613313585        1.58217959698962
H            3.07282367363284       -2.67289864996495        0.08351589684824
C            2.34363580575658        0.10623593099341        1.88884922126288
C            3.21584117152245       -2.00515070764198        2.60984262760326
C            2.23674902349094        0.51544215704282        3.20491596736271
H            2.03858631287151        0.76688388750659        1.09066154722201
C            3.11454959047198       -1.59273854186850        3.92662003791378
H            3.57748715483904       -2.99495266604193        2.37702644749875
C            2.62358066450479       -0.33373571660321        4.22727096716303
H            1.85184965490994        1.49934086591164        3.43250636633668
H            3.40944454587939       -2.26110968984400        4.72146888761762
H            2.53737033657510       -0.01663603636463        5.25635922167233
C            4.07699276677634       -0.85751019143881       -0.56126915415760
C            4.09075412587845       -1.14613397685146       -1.97904860625850
H            5.01839342300943       -1.17358437189235       -0.10543809852155
H            3.95910894934620        0.22007652259541       -0.41429393950453
C            4.04762619800999       -1.37902319421568       -3.15187777933167
H            4.03473717076138       -1.59440953616375       -4.17846571082084
Cl          -0.65597019643462       -3.13435239571842       -1.82428901221448
Cl           0.64443918240536       -3.42361094249188        0.96603827938812
O           -0.71607848064753       -1.10499617575568        0.75408026227205
O           -0.28241561991548       -0.55842649310552       -1.65698852484270
C           -1.92522323064247        0.73558958662172       -0.07576186217368
C           -0.61775220499190        1.34852026957243       -0.39240230408553
C            1.28002901597547        1.13263032121028       -1.77808184224581
C           -3.01802543423282       -1.20635178658060        0.73099037322547
C           -4.27203648997106       -0.64900563249175        0.49454836755816
C           -3.12268753950799        1.33779636325018       -0.37673514097727
C           -4.35255947398215        0.66335337924898       -0.05834540988198
C           -0.15536118417568        2.52120840836832        0.15637478511544
C            1.10035982643389        3.05151342580644       -0.29221996589997
C            1.81013801187959        2.33260376144316       -1.29808581542700
C           -5.61118500404187        1.22390161543699       -0.27502674500758
C            1.65924566154065        4.23057154964395        0.20858145194764
C            3.05146591404648        2.82089615959564       -1.75717268112953
H            1.79491489800252        0.49978576395867       -2.48085846090767
N           -1.89930488536008       -0.50541068315799        0.47827532817257
N            0.12020151485309        0.66963573765580       -1.30948174217868
H           -2.87212081924740       -2.19802848613799        1.12297180232173
C           -5.46117655127066       -1.35311441988291        0.78352689737592
C           -6.76251912796809        0.51821709487258        0.02955487480668
C           -6.68363908612437       -0.77109458997625        0.55134661168589
H           -5.38704284019482       -2.34974711897265        1.18891155963786
H           -5.69748284260726        2.21956187699597       -0.67902535933960
H           -7.72718908852006        0.97016191407735       -0.14269784078399
H           -7.58989832484995       -1.31324951460561        0.77536733748881
C            2.87648218304344        4.68966886776778       -0.26000503602248
C            3.57137063983788        3.98310286487323       -1.23952718777320
H            3.58082143284012        2.25840748599190       -2.51071954099296
H            1.13940859921272        4.79339053935725        0.96681571472813
H            3.29222821656416        5.60219868681555        0.13894544525516
H            4.52323152623912        4.35153199548320       -1.59116430147578
C           -3.17379267836241        2.66201430263813       -1.07409997109443
H           -3.59441410034915        3.42594157181841       -0.42050842343777
H           -2.18612401078930        2.98244558715402       -1.39075447412037
H           -3.80954684645202        2.58567279117469       -1.95486205151422
C           -0.91584320709412        3.21540231429520        1.24250223146366
H           -0.27376245859525        3.35077915398837        2.11178653217234
H           -1.24936790256498        4.19951347545432        0.91441109403757
H           -1.78300153867044        2.63540793653012        1.54371224137773
