63
 energy: -105.877045710693 gnorm: 0.000754876572 xtb: 6.5.1 (b24c23e)
Si           0.99968490732713       -1.04203537476199        0.54332482524451
O            2.17981269329272        0.03420272582977        0.78506748821123
C            3.20010724758821        0.40246210987237       -0.11915042680297
C            4.03188099334874       -0.78622331793541       -0.52595248250596
H            2.73359642279489        0.82733540237563       -1.01730487845004
C            4.49122476865131       -1.67605984923963        0.43575290428100
C            4.33655141481629       -1.00830143206490       -1.86144501696115
C            5.23674151646441       -2.77958632001040        0.06362912814043
H            4.23903560451089       -1.51659633176982        1.47269410113253
C            5.09180754365442       -2.10679795289829       -2.23136187590011
H            3.97392855102225       -0.32328584039444       -2.61508287127535
C            5.54071924958001       -2.99532606859500       -1.26968305840624
H            5.57591896117352       -3.47381915314469        0.81742739455831
H            5.32079593381143       -2.27368560325761       -3.27360581344776
H            6.12097226544164       -3.85848822059669       -1.56050897977436
C            4.07784523455198        1.45979307268993        0.57094147690809
C            3.32080905536404        2.64631629602288        0.90543544817184
H            4.90651752711737        1.71891198814466       -0.09385645523870
H            4.48218280867394        1.02462021551150        1.48783292993509
C            2.66839764296434        3.61184782329850        1.17667512985100
H            2.10742725203193        4.46266594544664        1.42441934049418
Cl           0.96074244972481       -2.43124532607428       -0.94711355412170
Cl           1.55397908721765       -2.33583876645747        2.11569007599100
O           -0.42281533697793       -0.59043937241816        1.37680579669676
O            0.21810569797939        0.11805753291300       -0.96404716540562
C           -2.24138741958638       -0.05538095335860        0.00326051790837
C           -1.60046126495739        1.27001942264012       -0.11616147670163
C            0.29675847467445        2.41487572665402       -0.89314259403949
C           -2.05758361127815       -2.19793798183700        1.01059579894315
C           -3.22853529059073       -2.62694393878214        0.39490908835508
C           -3.38205924492802       -0.41548588706955       -0.66687772290167
C           -3.92886016107820       -1.73251298280818       -0.46972419963337
C           -2.20747804310384        2.43978209882472        0.28556646698186
C           -1.54859114991893        3.68696695038385        0.04587110535988
C           -0.27117729080860        3.65265788417078       -0.57854980980509
C           -5.09865946377224       -2.17414818873509       -1.08595645816320
C           -2.10147899306957        4.92973041377832        0.37600191218186
C            0.40243261597503        4.85982247160651       -0.85264441674735
H            1.27368074140471        2.33582002783949       -1.33701173579659
N           -1.61436553810535       -0.94049332686088        0.82243912918545
N           -0.35001533995044        1.27258169356394       -0.65470935208637
H           -1.45016854839337       -2.82370353799074        1.64085378488243
C           -3.73119662835072       -3.93232367056470        0.59382560702042
C           -5.57470823286701       -3.45600159130462       -0.86852854372273
C           -4.88636005057748       -4.33196824727155       -0.03140884441705
H           -3.18784875176991       -4.60099323417109        1.24241007143172
H           -5.64796853782642       -1.51480655466119       -1.73850032712998
H           -6.48323875214542       -3.77816314945037       -1.35364094496739
H           -5.26613427988656       -5.33044074820823        0.12524409569590
C           -1.41917056680663        6.09913929160387        0.10165657972145
C           -0.16850120816867        6.06324422063860       -0.51199939369948
H            1.37212442232925        4.81747699254203       -1.32390766668820
H           -3.07072668174983        4.98093535250061        0.84470055134955
H           -1.85965219788810        7.04908697229508        0.36391153556829
H            0.35289844632651        6.98586389355696       -0.71909524312291
C           -4.04068618092050        0.51839412813718       -1.63420768288513
H           -5.03254069476580        0.80089687769124       -1.28225701772772
H           -3.45232246014912        1.41968747594565       -1.77619231635473
H           -4.15319565501771        0.02507780556419       -2.59847129947067
C           -3.52868998296068        2.41984219868087        0.98943555582421
H           -3.45054565202117        2.96683921767243        1.92799511506431
H           -4.29846516419338        2.89833604064970        0.38447632418277
H           -3.84158615522947        1.40355765364679        1.20894134507348
