57
 energy: -107.979350217576 gnorm: 0.000519001556 xtb: 6.5.1 (b24c23e)
Si          -0.27071279775206       -1.77417829082203       -0.38956582924534
O            1.28902132807499       -1.32169309676520       -0.33863759041259
C            2.46402609574404       -2.04216084339742       -0.06064217472341
C            3.39790304000469       -1.20006583790032        0.77836827734415
H            2.20139205403300       -2.95478144891145        0.49270344734199
C            3.02843021508075        0.06217539738188        1.21999359952417
C            4.65321396206068       -1.68692190922634        1.12820621464604
C            3.90538601820663        0.84424975619619        1.95078370130189
H            2.03810790134800        0.42867188120748        1.00353525557354
C            5.52761880136447       -0.91019830488075        1.86518861637747
H            4.94516954512366       -2.68492180696175        0.83601974174602
C            5.16321348450368        0.36458974473520        2.26668558302440
H            3.60002444817702        1.82951093944122        2.27326221346474
H            6.49903511857219       -1.30202297209961        2.12883532544496
H            5.85158520726023        0.97299922439313        2.83422382903693
C            3.11890577903583       -2.43858751301797       -1.39998764315878
C            2.28297171662836       -3.38161539221161       -2.11149806284753
H            4.09815882217815       -2.88341416860710       -1.21554165498609
H            3.24624735529018       -1.53838891582081       -2.00670494781444
C            1.55460256167987       -4.15263844526067       -2.66445040330247
H            0.91925875336671       -4.82330558062076       -3.16048238283035
Cl          -1.33947907978612       -2.64704243398927       -1.88126330144777
Cl          -0.16272423351610       -3.44196907668265        0.89001757921153
O           -1.10644162293622       -0.89993757843737        0.84390870680856
O           -0.52673540725995       -0.18512088727146       -1.49130557761037
C           -1.92004539575893        1.24803300289279        0.26297763806249
C           -0.55860049616726        1.66157661435945       -0.09485435517611
C            1.27417842530287        1.26557455041817       -1.50013700545037
C           -3.39799530973684       -0.50885121787704        0.81791424198808
C           -4.51589521159542        0.31681978238662        0.75162433698637
C           -2.96804348304243        2.11870582203541        0.19730437987502
C           -4.30543875096658        1.69677899167021        0.44909601081176
C            0.04981727570331        2.77598069090635        0.42087211344972
C            1.35355748029575        3.15432756812926        0.00502722859419
C            1.98309223426109        2.36931305891867       -1.00246943716243
H           -2.78274739581780        3.14062416685092       -0.09136286502053
H           -0.46004662414163        3.35311861019469        1.17456955080900
N           -2.13368987422615       -0.05140939659991        0.62193400185539
N            0.06451243163129        0.91093288590782       -1.04479789502321
F           -3.49737916735432       -1.80026544295345        1.11345976873290
C           -5.82949737311034       -0.15309793505823        0.97427974122175
C           -5.40195981483483        2.55213387289490        0.38588075746099
C           -6.68025205489876        2.07205342504274        0.61416131590865
H           -7.52296000564667        2.74345242553008        0.56348793319132
C           -6.88568579389988        0.72315599495750        0.90483338362770
H           -7.88867858658313        0.36347992555251        1.07656464648858
H           -5.24365667960155        3.59458240423958        0.15500282910328
F            1.77894344065089        0.51272424993870       -2.47158052323882
C            2.04181690516222        4.24684206007191        0.53757769113534
C            3.27547911034885        2.70281723373892       -1.44370819640943
C            3.31475659833891        4.55434987395476        0.09409815900644
H            3.83919586065245        5.39788240311517        0.51596118909200
C            3.92654671855580        3.78420667838961       -0.89169446256901
H            1.56836199020571        4.84400358945524        1.30183587128442
H            4.92097129757983        4.03611492214134       -1.22620777333421
H           -5.97966574044051       -1.19706934923828        1.19724446300526
H            3.74383292266295        2.10008409755177       -2.20518826077101
