57
 energy: -107.972913565440 gnorm: 0.000579211135 xtb: 6.5.1 (b24c23e)
Si           0.70471268860336       -0.52612653273372        0.11267703295234
O            2.18799147223006       -1.13432897506654       -0.05614933437724
C            3.39969599437045       -0.95511992740988        0.63483210024967
C            4.54206373747598       -0.92850005099156       -0.34647591786631
H            3.36796031818421       -0.01568794992624        1.19778416154141
C            4.49975407099342       -1.70826058116934       -1.49432781704559
C            5.66251058401393       -0.14920350447095       -0.09128979400601
C            5.56422913473772       -1.70484845973782       -2.37802667612318
H            3.62097186388864       -2.30197789987915       -1.69400393620192
C            6.72898411693114       -0.15242042723722       -0.97267526235083
H            5.69521524690271        0.46345111596339        0.79854794477245
C            6.68193970134635       -0.93040460903702       -2.11741935209464
H            5.52115615067968       -2.30889494062127       -3.27251420820622
H            7.59728141839664        0.45671432091971       -0.76735677783707
H            7.51348844569007       -0.92887961291685       -2.80702205136195
C            3.57891825448063       -2.13077291009575        1.61867714274190
C            2.47010099468225       -2.18635152350508        2.54577262445972
H            4.52053971937495       -2.00258084936578        2.15802894490579
H            3.61749916381577       -3.06131547615241        1.04567485778995
C            1.50491621806672       -2.19591830955618        3.25294862389834
H            0.67829650693465       -2.21794299440937        3.89763585550505
Cl           1.22750736927996        1.01360567382115        1.55102883358322
Cl           0.04699880024240       -2.12667994451786       -1.15958256896245
O            0.12197960818037        0.58735886911027       -1.08177229754947
O           -0.75150301393435       -0.62483425474405        1.09327281702843
C           -1.88023902076858        1.46958479776604       -0.23272067445548
C           -2.47922391198823        0.12038495042450       -0.28903990350150
C           -2.42881489066165       -2.11483986025301        0.46706737560433
C           -0.00863812671209        2.85939305659452       -0.60300224901567
C           -0.67191390865383        3.99549566357348       -0.13826688659805
C           -2.60100271954997        2.54032022761300        0.20779772226041
C           -2.02560833220235        3.84292494225830        0.28374466284804
C           -3.61049391825478       -0.13207572622348       -1.00475123314956
C           -4.18961342380351       -1.43418068873604       -1.03599126033853
C           -3.56914672573108       -2.45719932492928       -0.25990648695892
H           -3.61696931866745        2.39167824084309        0.53582099325832
H           -4.05788704016646        0.66046207214963       -1.58241404409943
N           -0.60034624242466        1.64678570035901       -0.66297753828866
N           -1.91614348089600       -0.86767569940043        0.46190982635816
F            1.22942992850009        2.91609023233667       -1.07624952607302
C           -0.05918981481850        5.26380802554774       -0.07016748588210
C           -2.71852643679663        4.95648373364206        0.75110870143448
C           -2.09990458416522        6.19436325505184        0.80720462523101
H           -2.64594095132940        7.05038122084000        1.17186285426997
C           -0.77550617864116        6.34059946911672        0.39898085573533
H           -0.30598925365232        7.31094834611954        0.45270156751277
H           -3.74305182358899        4.84343427685679        1.07125346030712
F           -1.82765310221261       -2.97683204314471        1.27515025710897
C           -5.32478259961365       -1.74482093164956       -1.78130099110541
C           -4.11253044326652       -3.75879377794006       -0.26005651540426
C           -5.84211320151796       -3.02823582627229       -1.76808277293757
H           -6.72062318818641       -3.25846554022397       -2.35047816755775
C           -5.23387612700416       -4.02732535193451       -1.00878614848161
H           -5.79472346938791       -0.97281535035415       -2.37132322310471
H           -5.64866569512974       -5.02373374373209       -1.01118069037487
H            0.96723750675073        5.36620055941709       -0.38321328522687
H           -3.63054707102066       -4.52609115198567        0.32376023518163
