57
 energy: -107.977691989340 gnorm: 0.000381996050 xtb: 6.5.1 (b24c23e)
Si           1.18912775841693       -0.06048815966315        0.63265087924754
O            1.51260301392402       -1.11260755419182       -0.54531912690298
C            2.43263661566782       -2.18192732990807       -0.56017653649700
C            3.85267545668474       -1.68203469786336       -0.50804944748159
H            2.23904258575798       -2.82862373140171        0.30492548650097
C            4.19081750750344       -0.49029708708308       -1.13443584958046
C            4.83078421886923       -2.40408785870066        0.16108823512208
C            5.49064242450313       -0.02019792331296       -1.08356581265672
H            3.42469242622073        0.07580675913329       -1.64296298237895
C            6.13233047392184       -1.93723290326979        0.20321090709494
H            4.56699472320727       -3.32484108956440        0.66067696134474
C            6.46412198229110       -0.74435364689258       -0.41706565261018
H            5.74176820512710        0.91443646954134       -1.56309780425046
H            6.88765539860847       -2.50097594688366        0.73075793608424
H            7.47898829450689       -0.37674985126352       -0.37515076263265
C            2.18104421353318       -2.96593245963651       -1.86060662221147
C            0.82058975426730       -3.45636691979805       -1.91189730827506
H            2.88304143224941       -3.80157463908350       -1.91464479547919
H            2.35411569401766       -2.29742007837982       -2.70769876815236
C           -0.31533672494266       -3.83201251328578       -1.93417082650602
H           -1.30643571120207       -4.17462443891427       -1.96745081991900
Cl           2.06645080161868        1.74041987831623        1.12710771695154
Cl           2.03673792111023       -1.08371577684640        2.28320161598315
O            0.31480805605471        0.83206671095943       -0.84507922624365
O           -0.37370312134817       -0.18829669833942        1.34983672383173
C           -1.66883577283870        1.77348713254266       -0.09203813395362
C           -2.18946205339262        0.40193112166744       -0.03519096720503
C           -1.80743081020146       -1.84867457432338        0.56898339189496
C            0.11329147083083        3.13212241978275       -0.78865439384458
C           -0.57111948358283        4.31135138021250       -0.46224703552105
C           -2.41483982227831        2.87619511986336        0.22396418064028
C           -1.88150825594000        4.18481585494337        0.08004283708151
C           -3.34874715455038        0.04819255913912       -0.66138283291920
C           -3.79190822510545       -1.30678447351438       -0.69402970802589
C           -2.96804876879085       -2.28688829483344       -0.06144345368740
H           -3.41400969619091        2.74534902116782        0.60578558805945
H           -3.91933543112392        0.80321394428574       -1.17721703801970
N           -0.40251780856512        1.91124537619814       -0.57780574138760
N           -1.45462943717143       -0.53908325637706        0.61931487536433
F            1.29134070382787        3.17147327363509       -1.39884551545579
C           -0.01052376289459        5.58813698002668       -0.64842811852212
C           -2.58448493198601        5.34180408306221        0.42335679967459
C           -2.01300460029488        6.58699611801769        0.23956115058607
H           -2.56342825818906        7.47425369918856        0.51202144252680
C           -0.73175686518228        6.70666216198151       -0.29504910662947
H           -0.29992382414300        7.68609654497145       -0.43181511223507
H           -3.57771652520395        5.25029025072102        0.83539034740532
F           -0.98915431887144       -2.68767994471642        1.19593123990298
C           -4.95972978777698       -1.71312208350871       -1.33288006097407
C           -3.35353808361653       -3.64570457252210       -0.09718855169510
C           -5.31964234905569       -3.05090269191945       -1.35598032338285
H           -6.22637188310360       -3.35443525253498       -1.85530363019558
C           -4.51476452878053       -4.00765212834835       -0.73901882574827
H           -5.58190263165603       -0.97329547325524       -1.81310170785541
H           -4.80736682217094       -5.04655586551128       -0.76653063351251
H            0.98391062899024        5.66885401900076       -1.05684552527931
H           -2.72668931156432       -4.37846696270830        0.38611144253001
