57
 energy: -107.980323544091 gnorm: 0.000380182803 xtb: 6.5.1 (b24c23e)
Si           0.43666721794370       -1.16792789549751        1.32267076243819
O           -0.12639688224609       -2.18945140077252        0.23776202592751
C            0.27553194199217       -2.56060377872014       -1.07494676398331
C            1.66916997930836       -3.12661326853055       -1.05064664680658
H            0.25153621376551       -1.66073501388953       -1.69510641839520
C            2.02117805358019       -4.07226304017390       -0.09608756533519
C            2.62273469617869       -2.68108906456678       -1.95483339202626
C            3.31157024904344       -4.56773520598009       -0.04891613434847
H            1.28679197650167       -4.40249442297762        0.62415497471961
C            3.91172362767061       -3.18153237104042       -1.90963284283162
H            2.35560538826506       -1.92905407606987       -2.68183719473993
C            4.25794721351998       -4.12521378360091       -0.95757356004361
H            3.57929545537324       -5.29701120517725        0.70123179592604
H            4.65031601426493       -2.82503483084883       -2.61212088354919
H            5.26654296265572       -4.50939870567409       -0.91812017201830
C           -0.75323341497837       -3.57721881721391       -1.59014898035108
C           -2.04307249682843       -2.94433222476112       -1.76921096624758
H           -0.84209060908592       -4.39273998722265       -0.86845780280054
H           -0.40361760813384       -3.98162532992955       -2.54348824544104
C           -3.08493695970005       -2.37191054377501       -1.90476081454671
H           -4.01140785454972       -1.89478908959706       -2.02542532495050
Cl           2.34193404409333       -0.54412057102212        1.30511418679020
Cl           0.15243806488044       -2.12543275691933        3.07104936340913
O            0.57563100610881        0.26883848160431       -0.95720151135978
O           -0.51789939468525        0.19663579037757        1.52041124492759
C           -0.14838765800027        2.30085323969520       -0.18014306706628
C           -1.47063774122361        1.67467608877384       -0.05925846308833
C           -2.73870309702686       -0.15366521817387        0.77292163552157
C            2.06925893006647        1.98713173093432       -0.83779801226499
C            2.41728422592784        3.31302906799179       -0.53666557098160
C            0.10055966897911        3.61664082604224        0.11358768740723
C            1.39149170390658        4.16439888699071       -0.04215998624696
C           -2.56313393645616        2.13961499112266       -0.72010159733812
C           -3.81873892226550        1.45808957348747       -0.66420143937721
C           -3.88259947033271        0.25496170741128        0.10899478218222
H           -0.70366471527139        4.23004094275984        0.48677203829358
H           -2.46777887144742        3.01822715232172       -1.33764187158323
N            0.84484622093259        1.48256641181428       -0.66154149265009
N           -1.57084867587268        0.55870484054509        0.72595652040208
F            2.96752308133830        1.15459651793906       -1.36984629690105
C            3.72062634737123        3.81173528280825       -0.71000279986471
C            1.71006495316903        5.49698360750813        0.26532171005856
C            2.99239172849425        5.96239136773028        0.09167606220578
H            3.22993649224118        6.98710628720656        0.33391345599020
C            3.99631112010508        5.12089313473926       -0.39540657201024
H            4.99681067460180        5.50435991686653       -0.52356972482187
H            0.93371898639877        6.14523358735593        0.64211469971067
F           -2.70525970765049       -1.25366266496276        1.53034640433963
C           -4.95028552743609        1.89119852128263       -1.34245900467932
C           -5.10130996864762       -0.46580802880325        0.16159852599564
C           -6.13506501104262        1.17270184897383       -1.27242042592519
H           -7.00786264135671        1.52054880732196       -1.80222569156834
C           -6.19893035909437       -0.00085706123825       -0.52111378384323
H           -4.89850676796275        2.79668811151472       -1.92837955815972
H           -7.12557539564993       -0.55397595326630       -0.47830191199493
H            4.48819782674109        3.15271584896340       -1.08384525707306
H           -5.14252037846943       -1.37528226168244        0.73946587097186
