57
 energy: -107.978262408405 gnorm: 0.000756425852 xtb: 6.5.1 (b24c23e)
Si          -0.13408906180778        1.78883433181267        0.65504237873381
O            0.87549202773970        2.10672707201914       -0.54889101539809
C            2.27886637393249        2.25605996439787       -0.56274556442374
C            2.92911702840100        0.96655991819547       -1.00194623171098
H            2.62854123546334        2.52847160581569        0.44212550999289
C            2.21898012977745        0.04753022097250       -1.76315247807635
C            4.24727587020169        0.69406402449170       -0.65873937045113
C            2.81767828474126       -1.13212604370973       -2.17045400749445
H            1.19190068200805        0.26212936318211       -2.01598261380436
C            4.84557320562050       -0.48161553854218       -1.07469355010640
H            4.79910701718679        1.40237189325435       -0.05782945035657
C            4.13230537261018       -1.39798567400996       -1.83017903834659
H            2.25575335780398       -1.84583543372014       -2.75549186691664
H            5.87079580736254       -0.68707683890166       -0.80396813198008
H            4.59879082597770       -2.31861434592088       -2.14816801273212
C            2.61911371698071        3.39330737851791       -1.54282851508097
C            2.16693789997281        4.66473447281813       -1.01954840367923
H            2.12107549765456        3.18810093732502       -2.49351039293088
H            3.70014731428540        3.41893770470824       -1.70214440815434
C            1.77691065174497        5.68637791952116       -0.53521601193445
H            1.44213148219796        6.59576689373731       -0.13466938364966
Cl           0.73708911657114        2.78783875396391        2.26276512223899
Cl          -1.96244030947931        2.64701022625724        0.71089299265176
O           -0.94793781452051        0.55650574752300       -0.91699119825981
O           -0.13215779965922        0.29874076513099        1.48883024931259
C           -1.89417023454339       -1.29730852178478        0.07077525884491
C           -0.52210396469268       -1.74008517752924        0.34349509172080
C            1.63195666291569       -1.20088627236553        1.16527370890482
C           -3.23118133786998        0.30429838176194       -0.99095476489447
C           -4.41744695890903       -0.37158218160757       -0.66135598830014
C           -3.00093874387909       -2.03263181457265        0.40742096495554
C           -4.30170908549248       -1.58325660164754        0.07481953265311
C           -0.06915076464899       -2.96409687892163       -0.04820533289705
C            1.28528668062922       -3.36342127966509        0.15927668402838
C            2.16074204303314       -2.42796890984393        0.79272493595580
H           -2.87420394955846       -2.95462967470625        0.95081987222685
H           -0.74375535411788       -3.63389699680776       -0.55654716773199
N           -2.02014413271428       -0.12290961844404       -0.61626729385784
N            0.32105429870534       -0.87520814415020        0.97818651110029
F           -3.26037086021825        1.38929406248668       -1.75629607070050
C           -5.68673341336764        0.10715708074234       -1.02973162367858
C           -5.46788167417535       -2.27514214843861        0.42340027948168
C           -6.70425656551957       -1.78429981701331        0.05835911988623
H           -7.59771568373417       -2.32232828534130        0.33580494466518
C           -6.81202674336084       -0.59764878924363       -0.66651693497405
H           -7.78740319413695       -0.22831769547934       -0.94307745199258
H           -5.38431402101394       -3.19387101042713        0.98334690945011
F            2.37028310669557       -0.26227480765039        1.76012244986959
C            1.78629023933912       -4.59752799275187       -0.23923395600017
C            3.51199010338029       -2.78065083978360        1.01064234926457
C            3.11515400699444       -4.92246361917768       -0.01810626113593
H            3.49217367200659       -5.88394557797656       -0.32972590006962
C            3.96677286093532       -4.01267181717423        0.60755130221525
H            1.12670696228481       -5.30251484680149       -0.72245218565095
H            4.99869736662399       -4.28087072535999        0.77654190042269
H           -5.75857511932785        1.02818279151909       -1.58565377980738
H            4.16444588496854       -2.07053959068937        1.49198728860584
