57
 energy: -107.983209479007 gnorm: 0.000706424811 xtb: 6.5.1 (b24c23e)
Si           0.53516257416150       -1.36911021459077        0.03713008212039
O            1.67162065558354       -0.23572730647403        0.30332269198821
C            2.89827068698230       -0.35043695871996        0.99088425967331
C            3.84486062145550       -1.27497745497773        0.27128789579016
H            2.70098021582231       -0.73672929437021        1.99782681753702
C            3.90792063885939       -1.26025780069485       -1.11521112673195
C            4.65859779732486       -2.14379116403882        0.98393457443477
C            4.76936935226773       -2.11200297358214       -1.78244337804772
H            3.26569970024578       -0.59351469526690       -1.67039403234633
C            5.52580353070155       -2.98885764082804        0.31519244089501
H            4.60023903358639       -2.16681672773322        2.06216275564555
C            5.58162747052745       -2.97566226592446       -1.06826327281874
H            4.80303407080164       -2.10222957580681       -2.86171834859056
H            6.15242403065750       -3.66680485863344        0.87568783949070
H            6.25274385232942       -3.64279820649993       -1.58902212414847
C            3.50270262302187        1.06254257703491        1.08878094909540
C            2.61639621453517        1.95466320595895        1.80309000978279
H            3.67131515942855        1.44389793035096        0.07834867809776
H            4.46306119918909        0.99831033267338        1.60578506099928
C            1.83950194428700        2.65837482218069        2.38027084925387
H            1.18363922935106        3.29590823234863        2.89321187504157
Cl           0.49154149898273       -2.65569589106938       -1.53614491213239
Cl           1.09280378279846       -2.75060776362190        1.52589114775335
O           -0.88142303917410       -1.03537441022469        0.95815341611888
O           -0.17525592655513       -0.11087174689087       -1.25747680734563
C           -2.40935035809361        0.54143330842572        0.04680153709086
C           -1.33459356996083        1.52691486664834       -0.09955102637473
C            0.72748422671694        2.00640157603188       -1.09977989073369
C           -3.04702801923169       -1.69751743416928        0.45170999051097
C           -4.37781020463502       -1.45339210294057        0.12982821765807
C           -3.69981883625872        0.85447233349954       -0.27037209740016
C           -4.73943664929728       -0.11795680050172       -0.22595923798224
C           -1.42306542071326        2.81020200908588        0.37676851663098
C           -0.38665818510902        3.74927174947009        0.14283338353576
C            0.72887723310312        3.32923956751887       -0.63452847483730
H           -3.92932638996331        1.85451619799956       -0.60081156748763
H           -2.28451348238106        3.09782747262092        0.95679189650596
N           -2.09790746023788       -0.72329064474087        0.45675530862652
N           -0.25435504297120        1.13889668176306       -0.82950605568043
F           -2.62434886605492       -2.90502194900190        0.81209777767134
C           -5.37006692783811       -2.45938247131215        0.14963672243037
C           -6.06665382581605        0.16609452825605       -0.53612014120639
C           -7.02483460865863       -0.83232011748558       -0.49940605734637
H           -8.05106319927410       -0.60110407824185       -0.73805709514205
C           -6.66966271158104       -2.13832390875514       -0.15997381543113
H           -7.42743997120443       -2.90666808976304       -0.14103348717099
H           -6.33960203742183        1.17494943530125       -0.80610599712765
F            1.71167006878767        1.55365509967165       -1.86999716025240
C           -0.41127217081851        5.05791428499196        0.63320640415700
C            1.77682001982167        4.22715431012065       -0.89941036372656
C            0.63355778026595        5.92303498736811        0.36871675312554
H            0.60659772721568        6.92970841868409        0.75680801864150
C            1.72166189483404        5.50781949605566       -0.39486664317413
H           -1.25501531728340        5.38210092537440        1.22330364558598
H            2.52915617837860        6.19559191295039       -0.59258285237062
H           -5.08788257560081       -3.46613667691163        0.41243448037896
H            2.61583678411022        3.89891996137676       -1.49177903066171
