57
 energy: -107.978204167330 gnorm: 0.000785660772 xtb: 6.5.1 (b24c23e)
Si           0.77593144490416       -1.73537230682964        0.58705391698028
O            2.02426349183969       -0.81455521810741        0.96066627842431
C            2.98117205528558       -0.11755068298087        0.17980544214053
C            4.02799464823462       -1.05895764266715       -0.35515100511168
H            2.46625038487341        0.35754833069831       -0.65844794271025
C            4.44191682978508       -2.15280774402031        0.39234188040251
C            4.59906194593988       -0.82425851524134       -1.59865361931039
C            5.41219860467630       -3.00634983788915       -0.10166985885035
H            3.98973180309835       -2.33996298284025        1.35505364223609
C            5.57488691279874       -1.67425856983999       -2.08721221472133
H            4.27075143157727        0.02227573627806       -2.18422492467953
C            5.98215145866888       -2.76700841635872       -1.34043196726424
H            5.72285260575929       -3.85963925779708        0.48248847384182
H            6.01281070085997       -1.48800486341248       -3.05701859924230
H            6.73959650863180       -3.43337981975216       -1.72590145151959
C            3.63003827821954        0.94318055207624        1.08553094022138
C            2.63480843885023        1.82679394983692        1.65245291563444
H            4.34796532613670        1.51825352420121        0.49594383533694
H            4.15837577572955        0.43488167147621        1.89662100538523
C            1.77693937100849        2.52352617781189        2.11133510448404
H            1.04702597224207        3.14999703459749        2.53005480363479
Cl           0.75470615544306       -2.57690954962459       -1.22146384371952
Cl           0.82648306661730       -3.06913238635858        2.08565889260127
O           -0.62206281740929       -0.87846775651203        0.91886909877488
O            0.31951633583285        0.40675896896612       -1.22438639812694
C           -2.23234470189573        0.36822349583167       -0.28868010884625
C           -1.38565030883047        1.55898599341544       -0.19299277931253
C            0.61145000300496        2.61469375614081       -0.75846642856190
C           -2.53648583857862       -1.96471287147652        0.03474604855859
C           -3.79955697306129       -1.95118971726996       -0.52752313692051
C           -3.47603154955624        0.44695068961266       -0.83914423775945
C           -4.31630136069548       -0.69571736678285       -0.98209099285327
C           -1.87091147073810        2.73615456105091        0.32724373231311
C           -1.10016436406760        3.91434532293316        0.33165790615239
C            0.19587602177111        3.85270291689147       -0.24726140673158
H           -3.81945650202357        1.39758096064598       -1.21456672189736
H           -2.86303372870480        2.74496897548081        0.74939417376481
N           -1.77042592059123       -0.83513027431360        0.17796252597846
N           -0.11851596101456        1.49305340772887       -0.72780286396057
F           -1.98159402715067       -3.09015839978348        0.50134326056749
C           -4.59612497542706       -3.11507759940211       -0.66774309402010
C           -5.58498832085669       -0.64540989585722       -1.54759536936387
C           -6.34841192151504       -1.79476287815693       -1.66840442957255
H           -7.33305271715174       -1.74440996915967       -2.10580184399448
C           -5.84499577673548       -3.02099945571523       -1.22800900520233
H           -6.44987482214222       -3.90932542806296       -1.33191085495454
H           -5.97009486041070        0.30320057582540       -1.89108983571731
F            1.80662345919116        2.50836502699774       -1.35473455944989
C           -1.54354828347745        5.13451903959674        0.87003800361526
C            1.00583053322377        5.00104945399812       -0.28032418273648
C           -0.73195816646352        6.24322532021221        0.83348422909152
H           -1.07668331376344        7.17623385016223        1.25296346458902
C            0.54066584754782        6.17706924433528        0.25777084076360
H           -2.52692769230439        5.18264955436139        1.31261237961777
H            1.16278825925551        7.05854223496581        0.23964585563391
H           -4.20262433613046       -4.05966886004296       -0.32755760190505
H            1.98800503969166        4.93827394013211       -0.72088937171983
