57
 energy: -107.981863973371 gnorm: 0.000195960251 xtb: 6.5.1 (b24c23e)
Si          -0.23903090921779       -2.17224071697502        0.16174436804026
O            1.10965721558531       -1.32208321473798        0.37354889509349
C            2.49834168306574       -1.54023492305267        0.34154612667086
C            3.17634675875102       -0.33789481237304        0.95696984742109
H            2.80499467608255       -1.64718502352919       -0.70867460655080
C            2.52422737724061        0.42662582693515        1.91451679720928
C            4.47327788748656       -0.00472593168951        0.58819956895742
C            3.15657611378952        1.51509527688906        2.48845611750326
H            1.51622966024382        0.16810894667687        2.20094919731859
C            5.10762822526288        1.07701174595995        1.17118553027419
H            4.98312020420155       -0.59493746408745       -0.15978996508985
C            4.44983552670838        1.84079108096339        2.12078082790772
H            2.63813538776477        2.10675040979839        3.22829287928010
H            6.11708647192180        1.32760242281429        0.88076985724473
H            4.94432158306699        2.68796419897549        2.57199133588496
C            2.90687493588610       -2.81440434465853        1.10535177766797
C            2.56148465792413       -4.00236783692902        0.35562017594880
H            2.39600495072479       -2.82505097029288        2.07110314039957
H            3.98637575657604       -2.78822372564646        1.27547147223549
C            2.26414210302898       -4.94866300765594       -0.31318458196872
H            1.99937692867454       -5.79291198244503       -0.87570310453893
Cl          -0.47648348807731       -3.21367409406232       -1.51475044675243
Cl          -0.43700546326772       -3.40732701868161        1.75837847250289
O           -1.41395862141554       -1.11200947730768        0.61969880552989
O           -0.29676213608880       -0.30868860458888       -1.72211360581288
C           -2.02717337390385        1.05388052993775       -0.16467668899677
C           -0.65155201187681        1.48493759497418       -0.31789931139412
C            1.40426385537258        1.13948171223099       -1.37421717132508
C           -3.58108471733684       -0.75012136793746       -0.18440968652133
C           -4.66805330189410        0.09075227293590       -0.16348774714834
C           -3.07099040831559        1.93402263471300       -0.11386321609142
C           -4.41629464893203        1.50458424122461       -0.08503593180922
C           -0.14765019921583        2.61717619174133        0.28662693085305
C            1.16709771379249        3.05430779098108        0.06441580093832
C            1.98064958594466        2.28878793849427       -0.81394371063740
H           -2.86363470720690        2.99195912947415       -0.15843307002015
H           -0.78319760578782        3.17034083574501        0.95943455631848
N           -2.28155317498509       -0.31686089278613       -0.14057375429888
N            0.15618771360423        0.73296662600038       -1.15843334581148
F           -3.71425006559849       -2.08011584607024       -0.26021592365983
C           -6.01500590290830       -0.36801524315885       -0.21586611736416
C           -5.50329693522615        2.38461745940378       -0.03788106534419
C           -6.79263987326934        1.91134831824811       -0.06989386659330
H           -7.62444007270484        2.59704160207542       -0.02931421668582
C           -7.04009053057213        0.52860644698979       -0.16477689481398
H           -8.06143566653596        0.18018017633193       -0.19817419463448
H           -5.31049889639162        3.44569742089235        0.02314005828834
F            2.11770817624675        0.37610248613146       -2.20818540456594
C            1.71912048598578        4.20641153544127        0.65787690596586
C            3.29855642822249        2.69257276890276       -1.08795642542747
C            3.00782524011990        4.57816506769746        0.38016818493672
H            3.42432438987007        5.46311801322572        0.83721595498908
C            3.79887262537646        3.82396552195339       -0.49711575290733
H            1.10745083731669        4.78884885774562        1.33006392638651
H            4.80973008513194        4.13835131743126       -0.70496751792099
H           -6.19561959676574       -1.42895420256202       -0.28608728213314
H            3.89854706652472        2.10235230131529       -1.76246290494248
