57
 energy: -107.982503186112 gnorm: 0.000301922163 xtb: 6.5.1 (b24c23e)
Si          -0.13043557835820       -1.98915001636578       -0.18432364831627
O            1.39670325804923       -1.45016303060532       -0.10525714668520
C            2.49387585491148       -1.73877027354986        0.73877348695476
C            2.85072798708132       -0.42238525513458        1.39535764257250
H            2.17071375255432       -2.45540787166160        1.50583438344865
C            4.02997222061217        0.26884339111727        1.15993726123314
C            1.88658996381259        0.15381358298342        2.21829566799811
C            4.24252917342783        1.50803412247539        1.74231895564719
H            4.79601262271159       -0.14993553319378        0.52638229863034
C            2.09392076120398        1.39505145483454        2.78791120784982
H            0.96888289570930       -0.38518539571791        2.40424979149130
C            3.27612388280469        2.07708025768683        2.55073324379776
H            5.16818682039657        2.03275767058011        1.55659425783669
H            1.33556333611123        1.82892704905428        3.42323890287245
H            3.44419138703365        3.04556417664019        2.99788070665383
C            3.60262568474417       -2.37821081750336       -0.10383963759126
C            3.13514084539804       -3.64259459947939       -0.63596050041404
H            4.48398994619599       -2.54206336016724        0.52098438061814
H            3.85534406325576       -1.71777632389808       -0.93764604723607
C            2.68727996185813       -4.66323021426550       -1.06932905971182
H            2.30967039152090       -5.56325375260281       -1.45227119611409
Cl          -0.83867699754247       -3.19322078954008       -1.64592300194405
Cl          -0.09363241226064       -3.37799328350361        1.39507455107540
O           -1.19016887367095       -1.03524389769265        0.79294287811588
O           -0.34244303500567       -0.58000725039676       -1.52377841311753
C           -1.86746013624085        1.06802513912714       -0.08169259707707
C           -0.47166637865350        1.41973564178313       -0.36110079453979
C            1.46179345859978        0.85874907797769       -1.55635123851083
C           -3.44895995702313       -0.59465870779961        0.48366970024660
C           -4.52825683606707        0.25333094064400        0.25880126316277
C           -2.87762927190223        1.95663508219277       -0.31029355498083
C           -4.24507685414524        1.59731718220647       -0.13402442175323
C            0.11079554128561        2.58072819191520        0.07677250382579
C            1.44275324660861        2.90981653178637       -0.28102560425835
C            2.13773550607951        2.01534022818061       -1.14169368964882
H           -2.63474127933736        2.94325281783088       -0.67016760839530
H           -0.44817807333004        3.23989132324095        0.72011851910693
N           -2.15577164387769       -0.18997383687634        0.36321104721273
N            0.21366345165216        0.56607087683364       -1.16981560635737
F           -3.61646563687831       -1.85595531438662        0.86944693382162
C           -5.87194940844280       -0.15675986199926        0.41039137771287
C           -5.30092694408669        2.47787530727227       -0.35135770389098
C           -6.61007441149309        2.05760638241492       -0.18830427102213
H           -7.42098022653274        2.74855923003090       -0.35720492664615
C           -6.88652662371148        0.74322494849688        0.18887269025458
H           -7.91237794966138        0.42946279049099        0.30770716680765
H           -5.08649124288981        3.49298039681666       -0.64933323429600
F            2.03671753254748       -0.00247535545768       -2.38760601796708
C            2.09324724262483        4.06591911712582        0.15788315256258
C            3.45473684769662        2.30696353568017       -1.53846108369132
C            3.38857609488902        4.33296493786336       -0.24127946681897
H            3.88188967847944        5.22850583546786        0.10399665793316
C            4.06430698439396        3.45628017152532       -1.08671897850241
H            1.56944915586388        4.74596442511586        0.81168407013076
H            5.07513085338834        3.68008507408796       -1.39139589779588
H           -6.07795806437004       -1.17393509453091        0.70225016064882
H            3.97020443198622        1.62310594485450       -2.19385751293673
