57
 energy: -107.975171716901 gnorm: 0.000869359299 xtb: 6.5.1 (b24c23e)
Si           0.85181494566397       -0.73219667585012        0.86479641551641
O            2.30028148252735       -0.70092092797189        0.15408421183422
C            3.42085341199425       -1.54844448161336        0.20457879199974
C            4.48782338605902       -1.00006691368680       -0.71121407374304
H            3.11409937141037       -2.55003790777986       -0.13071583831928
C            4.62114483635711        0.36993821287104       -0.88925839774137
C            5.37156195115842       -1.86148247401003       -1.34785676235030
C            5.62393105734946        0.87065841690851       -1.70073734392554
H            3.92639277293505        1.03473903180401       -0.39995631959458
C            6.37706877019054       -1.35818608603195       -2.15369330041058
H            5.26879638837101       -2.92904442159055       -1.21228587298966
C            6.50482358442662        0.00922515864207       -2.33196801194500
H            5.71924142514220        1.93767242692311       -1.83871198014604
H            7.05988014169873       -2.03468315276036       -2.64654417239935
H            7.28830624709170        0.40108302964601       -2.96380797189030
C            3.98346202188442       -1.65745344156401        1.63726473045191
C            3.15191934134003       -2.49780499137008        2.47042474353853
H            4.03875040717163       -0.65302581010198        2.06371308006391
H            4.99121701776018       -2.07784258951180        1.58694730890220
C            2.44295303938526       -3.21283881323828        3.11667256387370
H            1.82226121961039       -3.81995614168106        3.70459069124684
Cl           1.02314930919726        0.06425180448987        2.68873182514457
Cl           0.14549974961881       -2.59919716753677        0.59475861184576
O            0.07614385196571        0.20956724831752       -0.27644608128119
O           -1.56490679076633       -0.43848314240608        1.69424866208186
C           -1.96571798762635        1.40113879323527       -0.18021207706839
C           -2.67653252965245        0.12132516217908       -0.23240092502564
C           -3.06038207250959       -1.92321031795673        0.82827888579563
C            0.10037633988946        2.53870225965811        0.11556255361014
C           -0.50697597122771        3.78129473788598        0.11823698310283
C           -2.61916808938997        2.59381398612324       -0.20834561513844
C           -1.92616966349372        3.83425955983810       -0.07009400568856
C           -3.60268249914130       -0.18384159277982       -1.19875225466752
C           -4.28840829448450       -1.41558199412437       -1.18837533493491
C           -4.00370648082560       -2.32325941295652       -0.13192493900770
H           -3.69426141108594        2.59971029713211       -0.28929579612221
H           -3.78864382469139        0.52862651546836       -1.98621237734662
N           -0.60008913179920        1.37476098951806       -0.06554874638913
N           -2.40936797985153       -0.75772247077838        0.79057172702409
F            1.42179214353099        2.38729603226798        0.26539838885191
C            0.20783961794204        4.99220931144319        0.29606902175456
C           -2.56559977144850        5.06773878124112       -0.08004153307627
C           -1.84438715233573        6.23897707923382        0.08790272248204
H           -2.35161813425760        7.19075086465639        0.07667436520597
C           -0.46234113455860        6.18941643706272        0.27752285125149
H            0.08696127317311        7.10909907160116        0.41315411716738
H           -3.63567719060395        5.10329134522698       -0.21997944467166
F           -2.79649986214696       -2.70159611979009        1.87758008080266
C           -5.23116139553216       -1.78672139711957       -2.16146052657875
C           -4.66147681473494       -3.56444083082519       -0.07588009269601
C           -5.86064305922695       -3.00673339207197       -2.08827593133987
H           -6.58212909246938       -3.28569818506667       -2.84123425078845
C           -5.57627833654395       -3.89486903490131       -1.04701530894856
H           -5.44896411344054       -1.09986633876279       -2.96504863273952
H           -6.08027945090024       -4.84820446289430       -1.00804738678574
H            1.27492832822074        4.94985772087379        0.44376336221737
H           -4.43269219831855       -4.24260558551762        0.73090060998316
