57
 energy: -107.638643460833 gnorm: 0.000691223637 xtb: 6.5.1 (b24c23e)
Si          -0.17934155439030       -1.87706691730614       -0.19771405276476
O            1.38453532330750       -1.47153064072268       -0.04783319324502
C            2.39759610875750       -1.79893832291720        0.88411545138221
C            2.73658706187888       -0.50249220881529        1.58736519498943
H            1.99165304956030       -2.51442990242949        1.61132653663640
C            3.92875584132017        0.18484553860698        1.41312404212373
C            1.74555595632535        0.06111097337239        2.38597062601084
C            4.12873723502931        1.40644073785458        2.03497091936669
H            4.71554440453435       -0.22362882498989        0.79861642286154
C            1.94056537267015        1.28606626014247        2.99432735147186
H            0.81642771066199       -0.47304291045200        2.52230607931266
C            3.13658206701076        1.96276664619861        2.82078185520350
H            5.06452633567802        1.92784820463875        1.89728811408221
H            1.16128704344842        1.71019760078183        3.61061372684363
H            3.29549253575243        2.91766317873456        3.29945672562834
C            3.55547793031689       -2.46325650260706        0.13078691882610
C            3.08844230060582       -3.69056144419638       -0.48234371599462
H            4.36448391374257       -2.68110090968412        0.83234063715046
H            3.91919778098191       -1.79303177526041       -0.65272818804638
C            2.64495943244331       -4.67679829242031       -0.99290129462443
H            2.26562552620496       -5.54811398626263       -1.43589679349332
Cl          -0.91539914708357       -3.03310197383842       -1.69791934333412
Cl          -0.29681241311289       -3.32973063630398        1.34274246923254
O           -1.20623145332168       -0.89398510375629        0.78374723942101
O           -0.26132172386282       -0.47574039845883       -1.50031399618986
C           -1.74234668673820        1.23114060140005       -0.08373657184635
C           -0.31771321824149        1.50610432340255       -0.31028402257741
C            1.61553570997842        0.88193397665573       -1.50912130874263
C           -3.44124415077970       -0.35358313711308        0.42735604635033
C           -4.45319001861147        0.57985311270022        0.16003505999960
C           -2.68367983457028        2.18284128331808       -0.34721593428826
C           -4.07412177277795        1.90242246084101       -0.21735983722820
C            0.30621430370920        2.62336578107254        0.17327132791773
C            1.66173770057272        2.89245592931252       -0.14690314502031
C            2.33007087281922        1.99684856075860       -1.02758104369409
H           -2.36878476140731        3.15288248415144       -0.69554096590897
C           -5.06000973100324        2.85365558190223       -0.47050576462421
H           -0.23510916902693        3.29352366775672        0.82024629715935
C            2.34977566346015        4.00255792643022        0.34954802233851
C            3.66692862729807        2.25175165111967       -1.37899997485860
Cl           2.27961879941357       -0.22418937618493       -2.61265089304367
N           -2.12428481240645       -0.00167258117096        0.34713369121419
N            0.34620392807915        0.64515162475978       -1.12461835847160
Cl          -3.75581668214387       -1.96319209716112        0.88737999756367
C           -5.82474986447033        0.26807566026778        0.25683878366427
C           -6.39912650872843        2.52483868995191       -0.35956385236039
C           -6.77264169367863        1.23168912750053        0.00091576687982
H           -6.11274921375278       -0.73149950051139        0.53675016828237
H           -4.76400462310511        3.85176246133227       -0.75618769752788
H           -7.15503088292680        3.26900976972107       -0.55608237126262
H           -7.82003393281562        0.98305606924930        0.08026861636629
C            3.66324681391144        4.23065174130385       -0.00877620016355
C            4.31706290211160        3.35428414789046       -0.87127183545596
H            4.16948244804341        1.57338540967519       -2.04875655219560
H            1.83705011181838        4.67896336658104        1.01604431773632
H            4.18562541515551        5.09145056456672        0.37951364371827
H            5.34384762235581        3.54207532860974       -1.14615514277053
