57
 energy: -107.635067130464 gnorm: 0.000740307409 xtb: 6.5.1 (b24c23e)
Si           0.22486888946816       -1.47534277149729        0.57343365106226
O           -0.81415632080545       -1.87776990097323       -0.58961591505437
C           -2.01726549973217       -2.60805697534063       -0.58836408184370
C           -3.16712765653051       -1.65962818514698       -0.82217698469393
H           -2.13954848314246       -3.11282384672916        0.37817861205571
C           -2.98013820535410       -0.51971702345271       -1.59378867050818
C           -4.41309129141456       -1.90555950241849       -0.26141470435650
C           -4.02186444661642        0.36787881670449       -1.79431465246228
H           -2.00572704043165       -0.32940845505377       -2.01850561995186
C           -5.45632510032363       -1.02017335083087       -0.46808121895075
H           -4.55886794894952       -2.78592159159390        0.34797678782021
C           -5.26214057689439        0.11866552800388       -1.23186937528435
H           -3.86491837397008        1.25725872317257       -2.38760147185855
H           -6.42130796714150       -1.21547258643313       -0.02360781349025
H           -6.07497183572564        0.81308324895402       -1.38589586625696
C           -1.93588758001341       -3.66510730533205       -1.70492453591422
C           -0.86812197444849       -4.60036458221338       -1.42144661028239
H           -2.89110907653221       -4.19175992142252       -1.77181942829616
H           -1.73744193965200       -3.15839550901195       -2.65269286447170
C            0.03507657786794       -5.33083865743223       -1.13523449003501
H            0.81927242391534       -5.98723784034102       -0.90265417215760
Cl          -0.68058051532887       -2.49606234825516        2.22026424334754
Cl           2.08952955817042       -2.26064743714783        0.96563095441635
O            0.95885186898569       -0.46700757900147       -0.85710208501895
O            0.00445932027004        0.01489828380583        1.42587067705939
C            1.79275488902653        1.51793348803090       -0.01925291573488
C            0.38843915302144        1.93022472852627        0.12866483659316
C           -1.79615269378197        1.40424653385982        0.90056889310007
C            3.24590191720667       -0.08642077094431       -0.96684022896688
C            4.37832502172868        0.68349493068310       -0.63361760165532
C            2.84314730856074        2.32715465837567        0.30713370225138
C            4.17870446300435        1.91815174309696        0.04701993979045
C           -0.06708965516657        3.07940946121915       -0.44819114305558
C           -1.44719470375020        3.43179357828758       -0.39388421843516
C           -2.33114448979670        2.55347303249250        0.29909665521390
H            2.65410249469275        3.27757380404448        0.77842696438420
C            5.28773468185788        2.68864200539090        0.40458424693782
H            0.62254112178478        3.70870122009761       -0.98651741023815
C           -1.95621914522459        4.57558876216349       -1.00447665419038
C           -3.70317140708035        2.86993576098919        0.35100197116323
Cl          -2.74011296334378        0.30496176684970        1.79413232808105
N            2.00681097352571        0.31191245903392       -0.61122778758637
N           -0.46470746545109        1.12327319674874        0.81020888804078
Cl           3.34465580482598       -1.51302589103721       -1.87936509217145
C            5.68840218034418        0.27690982967937       -0.94397080565561
C            6.56503653088988        2.26156511214088        0.09965550687426
C            6.75999077193465        1.05895784285386       -0.57654809925369
H            5.83522525087981       -0.65569858419147       -1.46301152134785
H            5.13087950389302        3.62191008979185        0.92364901388885
H            7.41550655639071        2.86178828798969        0.38393169080517
H            7.76240928875514        0.73657810730895       -0.81312843038029
C           -3.30895337639978        4.86267192171793       -0.94314669056761
C           -4.17371249942292        4.00720626151789       -0.26526212781040
H           -4.37114531577224        2.20563864543642        0.87315366876549
H           -1.28110359523114        5.23487676601720       -1.52881649381536
H           -3.69323694737067        5.75000951617676       -1.42169463768461
H           -5.22716346018954        4.23886450462516       -0.22252681222382
