57
 energy: -107.637045048489 gnorm: 0.000681183824 xtb: 6.5.1 (b24c23e)
Si          -0.25483988277310        1.67800637029618        1.10407055504879
O            0.66148799373873        2.51066460418944        0.07405644966486
C            0.82175740283959        2.46088486884114       -1.33321416137239
C            1.77721233674823        1.35196246871891       -1.69046029783494
H           -0.15111226273832        2.27160263814209       -1.79411931523331
C            3.05064964249675        1.32692779940842       -1.13462871304762
C            1.39195965207278        0.32706473945950       -2.54307935764695
C            3.92761653717902        0.30164790585554       -1.43882217008654
H            3.34890580778331        2.11038106721112       -0.45422386513794
C            2.26558211095836       -0.70535774193137       -2.83740880595919
H            0.40116062400673        0.33827301689273       -2.97289195879676
C            3.53674127494008       -0.71783258507843       -2.29017309274059
H            4.91766853681445        0.29505520651668       -1.00826007676339
H            1.95364060755271       -1.50169005077886       -3.49751602396875
H            4.21875674288985       -1.52250195958028       -2.52094887916137
C            1.33976556560018        3.83405735453979       -1.78918485772719
C            0.31333395518267        4.84130294889761       -1.62247910008671
H            1.63370609338327        3.77167113730206       -2.84054826880673
H            2.21086105837188        4.10511944153510       -1.18905246019785
C           -0.56426196254500        5.63921578212124       -1.46724110174240
H           -1.31666501383798        6.35666893628294       -1.32964128599460
Cl           0.48977845211125        2.70831752799009        2.74716695243503
Cl          -2.24433612512156        1.95296405644024        1.51980894956005
O           -0.83623636527929        0.57916747857638       -0.51026374763311
O            0.20337708468953        0.16010240407787        1.76185976655200
C           -1.30017366477190       -1.56359621213346        0.19414017590846
C            0.14811528661855       -1.73710047291581        0.36702165752630
C            2.20694719968734       -0.91472478869681        1.22900132042040
C           -3.00745125617928       -0.18084446485976       -0.66343401107275
C           -3.98996257621996       -1.16082036977986       -0.41668683721437
C           -2.19590870791600       -2.56962003799289        0.43684424626811
C           -3.57646381006205       -2.39063145540803        0.16863160341487
C            0.79249202769432       -2.78878634001310       -0.21502297042225
C            2.20222714157763       -2.95243321114281       -0.09286003011651
C            2.92051251239943       -1.97705216917490        0.65933346325871
H           -1.84587519906217       -3.50049535751172        0.85165459626191
C           -4.53310186107673       -3.37597230289556        0.43411001724620
H            0.22541731516311       -3.49546181340268       -0.79845333800108
C            2.89050283958279       -4.00904404623835       -0.68258273874763
C            4.31620076664600       -2.12035306217720        0.79833495815020
Cl           2.94983642777802        0.31833524792567        2.13701134760279
N           -1.72035492929708       -0.37726477585100       -0.32059625550323
N            0.84969311718465       -0.82579627325713        1.09254206254561
Cl          -3.35785141496609        1.28498794573881       -1.45237489585127
C           -5.34794915234957       -0.96852188395716       -0.72266051331807
C           -5.86194222645229       -3.15990174184017        0.13214076657043
C           -6.26483204667008       -1.95780511165292       -0.44649739772793
H           -5.65808600339669       -0.03702052038592       -1.16679755146971
H           -4.21502988110170       -4.30610205419667        0.87974695985308
H           -6.59335392398541       -3.92463716218973        0.34372570740334
H           -7.30686826472061       -1.80054300199601       -0.67898217186050
C            4.26241075859602       -4.12346511262793       -0.53791401412360
C            4.96550523965374       -3.17869676348025        0.20571040607714
H            4.85913818435719       -1.39088155773950        1.37588655139138
H            2.33882592635355       -4.74009279386852       -1.25418132770114
H            4.78684527553984       -4.94588266655690       -0.99903549967265
H            6.03466903233059       -3.27863308564732        0.31804257958023
