57
 energy: -107.635563243458 gnorm: 0.000895938140 xtb: 6.5.1 (b24c23e)
Si           0.90801374359616       -0.87331834383140        1.39240510309148
O            1.27986674613573       -1.98014891090578        0.30576391820067
C            1.86216877165847       -1.96231577762532       -0.98881620016220
C            3.31298070057485       -1.57217883494370       -0.90479841004459
H            1.31867067810768       -1.23207984414198       -1.59336325001003
C            4.10827850569051       -2.04687384733058        0.12963075527139
C            3.86192149665535       -0.71539521644353       -1.84898294037898
C            5.43382123003073       -1.66244472497874        0.22335285911251
H            3.67887319408098       -2.70269853371375        0.87286915393232
C            5.18880474410400       -0.33470430341510       -1.75654673942955
H            3.24172248909238       -0.33868501611670       -2.64939579123349
C            5.97611879276659       -0.80551665762215       -0.71924955206055
H            6.04260767873215       -2.02957036275637        1.03623939681773
H            5.60697151665951        0.33865816070051       -2.49063955135211
H            7.00954083169023       -0.50107877058889       -0.64340163079845
C            1.67452650065291       -3.36662399602980       -1.58373043707268
C            0.26994441207724       -3.61245664347669       -1.83578706310198
H            2.23812178605714       -3.43606136880859       -2.51751431053034
H            2.06033423658949       -4.10705977036629       -0.87873257487718
C           -0.90408529924084       -3.74786185661304       -2.02427048758904
H           -1.92939858867967       -3.89137077409435       -2.19415065493631
Cl           2.08855267392870        0.71204652569447        1.76851159638831
Cl           0.99824260048093       -1.96769612257067        3.09823227678623
O            0.55703811903721        0.48741612515800       -0.73835517248266
O           -0.68475619119625       -0.35832888769792        1.46107916813073
C           -1.20500393002915        1.81245004677221       -0.13682875171130
C           -2.03032497530657        0.60097413237295       -0.21253843049764
C           -2.30961982863397       -1.69963725410438        0.36829864607748
C            0.92333580109961        2.72991517652068       -0.51977870955012
C            0.46891973509760        4.03123255328914       -0.22249849605159
C           -1.72090569726512        3.04974174796117        0.14823508581806
C           -0.89943646140510        4.19652990122113        0.12798151581405
C           -3.12980507190884        0.55035120637954       -1.01098269416210
C           -3.88652164265621       -0.65138547875008       -1.15823194871657
C           -3.43385617404305       -1.80836672240683       -0.45190320145975
H           -2.76498476094239        3.13731130556694        0.40168596698799
C           -1.37810674049010        5.48256625411574        0.42540838241022
H           -3.40922190476762        1.42391729586398       -1.57736796394644
C           -5.00956417081889       -0.73597282635876       -1.97277429018782
C           -4.14989498772821       -3.01702006137782       -0.61320532675263
Cl          -1.68133147725114       -3.01624383151297        1.25106769938051
N            0.11588273026505        1.66033822943539       -0.46008343467406
N           -1.65214179718305       -0.49849414144056        0.50351169562572
Cl           2.52688365749687        2.41341197528830       -1.01579776865860
C            1.30805926494758        5.15786078654183       -0.26480027889423
C           -0.53531149760595        6.56752780948642        0.37865599127499
C            0.80810631188634        6.40324464209980        0.03321439252831
H            2.34418565224465        5.02679802969979       -0.53092271210168
H           -2.41761474307229        5.60142769753287        0.69093548169048
H           -0.91049982019160        7.55296707484821        0.60937380574147
H            1.45848433411418        7.26386964795273        0.00087908228855
C           -5.69680046532610       -1.93148373731111       -2.10834110098538
C           -5.25714934581577       -3.06457567895449       -1.42707926866326
H           -3.81577555083415       -3.89420853104656       -0.08320827798971
H           -5.34092019991877        0.14547365788166       -2.50125273722461
H           -6.56865580431169       -1.98534941166715       -2.74120054532344
H           -5.79444880894571       -3.99466574333516       -1.54001326975261
