57
 energy: -107.633688480626 gnorm: 0.000655996821 xtb: 6.5.1 (b24c23e)
Si           0.98020337051211        0.32310354426970        0.70392094248461
O            1.82392844293096       -0.37450950446896       -0.48181142902348
C            3.17426257442981       -0.77943279101172       -0.50815891201745
C            4.09161772083595        0.41523991236491       -0.51342100640462
H            3.38105615208429       -1.39378213679779        0.37742093878258
C            3.73369685077772        1.55380573762391       -1.22275515011912
C            5.28712298273933        0.39611942011864        0.19013424019792
C            4.55882292042036        2.66350938559025       -1.22354956538317
H            2.79456898199360        1.56788014627151       -1.75587408512910
C            6.11543630255625        1.50444700967979        0.18245079998696
H            5.56031326318781       -0.48271419601888        0.75563332599775
C            5.75267336345600        2.63946460859536       -0.52268930983775
H            4.26838799306379        3.54907734659720       -1.76986971563838
H            7.04184810103861        1.48546451612717        0.73734326623400
H            6.39634551021285        3.50681286346639       -0.52006284686903
C            3.36499183399462       -1.62415367329747       -1.78052336330277
C            2.45514499339639       -2.74982111264777       -1.78595516811753
H            4.39926754488383       -1.97388867864602       -1.82384638388599
H            3.16307427747999       -0.99542378153246       -2.65118515394341
C            1.66825749853364       -3.65073577906693       -1.75496385505300
H            0.99091576377377       -4.45186235249880       -1.74909300844822
Cl           0.87181911561825        2.30812627261627        1.27551776781279
Cl           2.25160107312114       -0.18202554585005        2.35410478569837
O           -0.20373268924570        0.67521122330811       -0.72826455263745
O           -0.27655654930694       -0.60045186072220        1.43607079193136
C           -2.38015831052959        0.49713915950474        0.04500742101684
C           -2.15994418182868       -0.95503811219625        0.08516145776793
C           -0.73433729630104       -2.75962672404228        0.68345049221631
C           -1.53585602959722        2.57207042918223       -0.70300650896984
C           -2.72366112497622        3.23710229054692       -0.33943786374445
C           -3.57204056369042        1.07133367564007        0.38805966880379
C           -3.77173670846671        2.47031077785954        0.24448339512104
C           -3.02250582963687       -1.81156764184765       -0.53469948490473
C           -2.76925230643012       -3.21309098572552       -0.56795946738352
C           -1.57542904776874       -3.68785471743425        0.05106963788953
H           -4.36098978769477        0.45587792654128        0.78778082683542
C           -4.95422228438412        3.10808747733448        0.62630388707212
H           -3.89005043661169       -1.41636388667903       -1.03706590005585
C           -3.62333390507767       -4.11775694311505       -1.19526514123491
C           -1.29000044994572       -5.06786979813175        0.00819284536839
Cl           0.71190198513828       -3.19922452837289        1.46075640169560
N           -1.36905859971714        1.25496477058062       -0.45881713571498
N           -1.05949952342529       -1.43673647055100        0.71852318584048
Cl          -0.27206510890763        3.35212858104010       -1.52180683366437
C           -2.90789690896748        4.61824547199266       -0.52634502974235
C           -5.10755482367842        4.46828914682806        0.44128453845336
C           -4.08457380956657        5.21731696439315       -0.13531646443397
H           -2.11393027405921        5.19687040193474       -0.96875044292169
H           -5.74523983018622        2.52231204072100        1.06909103148671
H           -6.02326229140033        4.95256771410936        0.74348257248380
H           -4.21494811202644        6.27933038471687       -0.27576644138971
C           -3.32166239632912       -5.46810636177849       -1.22177804904856
C           -2.15518358135864       -5.93456693076895       -0.62008637431835
H           -0.39057640341997       -5.42753782328755        0.48085575069302
H           -4.52456528888195       -3.75035234919041       -1.66221755575977
H           -3.98986257825352       -6.16038886770583       -1.70965726927393
H           -1.92772658450912       -6.98972864617112       -0.64641050350041
