57
 energy: -107.634153945545 gnorm: 0.000594981196 xtb: 6.5.1 (b24c23e)
Si           0.03193583301661       -1.86515583768598        0.41065012348926
O           -1.53070346524335       -1.45952216221206        0.32030482223839
C           -2.66076364861471       -1.46881264361539       -0.52537859788752
C           -2.53018941365059       -0.37363897809508       -1.55718128128801
H           -3.49654342872595       -1.22713807944636        0.14916487852562
C           -1.44511495211462       -0.34824857306433       -2.42463583272118
C           -3.47413698497838        0.64295077001306       -1.62253449533212
C           -1.29521001601440        0.69322530501779       -3.32266832381804
H           -0.71074407211745       -1.13774998991800       -2.38992813191682
C           -3.33281981785707        1.67392775363981       -2.53437265758626
H           -4.32467472554970        0.62881575863508       -0.95591773744064
C           -2.23680769501199        1.70695596083334       -3.37877611145003
H           -0.44246322179496        0.70778481154658       -3.98546169091806
H           -4.07664761633373        2.45556670139951       -2.57862807044459
H           -2.12001389144436        2.51731787675792       -4.08318717918845
C           -2.95157452774222       -2.83255070345088       -1.17082028922091
C           -3.07852272631369       -3.84962449134838       -0.14897072006720
H           -3.88447895056348       -2.74651886939989       -1.73501948893032
H           -2.14518996749857       -3.10680901985095       -1.85201121597898
C           -3.15861441765610       -4.64206793531808        0.74352351860045
H           -3.22119141341135       -5.36428373947880        1.50111613214001
Cl           0.67413445047614       -2.94889166147341        2.00098008615692
Cl           0.20917390200844       -3.39924014384722       -1.03314712350067
O            1.06985168859137       -0.93889561425901       -0.60899076508704
O            0.18784269285400       -0.35652294409881        1.65942476006514
C            1.65610648128998        1.23119712209982        0.10319332737286
C            0.24256592363970        1.54156338369936        0.34473029179125
C           -1.66568522369754        1.02331241380249        1.62818767129527
C            3.31916357695112       -0.41567996672670       -0.32162119091101
C            4.35010823415931        0.51742574191826       -0.14624416654052
C            2.61727488258385        2.18378557531412        0.27522457290956
C            3.99995281732966        1.87157773087125        0.13682026482857
C           -0.37782632244631        2.63574497353422       -0.19437508698795
C           -1.71891812523273        2.94628856505891        0.14322094933423
C           -2.37495208248510        2.11973184841091        1.09763660766585
H            2.32439700262576        3.18130526995844        0.55917040124016
C            5.00574640456468        2.82216043386710        0.29648572913688
H            0.15581575566784        3.25250665042422       -0.89815251686602
C           -2.40722290018230        4.02958643569909       -0.41024137025733
C           -3.69902364504204        2.41563388801316        1.46529466437270
Cl          -2.32252599255979       -0.00841640418238        2.80776482826528
N            2.00865574362448       -0.03668448597073       -0.24308936311527
N           -0.41112504863484        0.74107245404756        1.22759708362249
Cl           3.60111936949031       -2.06133697740745       -0.66333298243155
C            5.71483931187095        0.17583120633642       -0.24550420497387
C            6.33693678011598        2.46298113479525        0.18466849222802
C            6.68252014467405        1.13953767462309       -0.08256386247459
H            5.98153574322371       -0.84699120629107       -0.45364372196467
H            4.73133809454887        3.84408859861901        0.51057415163763
H            7.10842152351585        3.20677198298940        0.30855845910215
H            7.72405707818067        0.86745983227196       -0.16255510054096
C           -3.70955450294331        4.29573793665783       -0.03808881875013
C           -4.35075909053880        3.48840062636462        0.89850376535669
H           -4.19122989870487        1.78986262531347        2.19174522432054
H           -1.90439535153522        4.65203913722670       -1.13424615532204
H           -4.23364790931009        5.13324278072512       -0.47262128132661
H           -5.36874738905474        3.70616246665646        1.18355172954407
