57
 energy: -107.637202684660 gnorm: 0.000540728390 xtb: 6.5.1 (b24c23e)
Si           0.11756766202266       -1.61443604443635        1.29443308367255
O           -0.99243971091627       -2.24822323392560        0.34569153843492
C           -1.33602657704816       -2.23165129103448       -1.03491963203080
C           -2.57405258829363       -1.39042332757103       -1.20296998264303
H           -0.50973689968346       -1.79105795957711       -1.59342913601514
C           -3.72418833202506       -1.68269967939369       -0.48087956381137
C           -2.56272841843842       -0.28834521887054       -2.04696363057609
C           -4.85255769281801       -0.89431082225887       -0.61771759337793
H           -3.72672690902294       -2.51965854595795        0.20145341309110
C           -3.69318400258699        0.49702954594199       -2.18647554613772
H           -1.66014340006083       -0.04640662915057       -2.58891048728709
C           -4.84087254632557        0.19265562637929       -1.47509205090454
H           -5.74229854995494       -1.12787564116961       -0.05160555844569
H           -3.67588346528868        1.35528802906700       -2.84192029570495
H           -5.72185365400668        0.80732539453251       -1.58355665721430
C           -1.53817801680373       -3.68414688279838       -1.48952677553224
C           -0.27717006650162       -4.39394898469897       -1.43412817992312
H           -1.92306858562402       -3.68359024723569       -2.51250957113941
H           -2.26296475240448       -4.17503961449742       -0.83580235886442
C            0.79126224299253       -4.92607182874031       -1.35607628985128
H            1.71746629571612       -5.41419919782510       -1.29479663348898
Cl          -0.49168039903666       -2.35382777224076        3.07775307883596
Cl           2.05088712828087       -2.14027484584823        1.18123936695889
O            0.83490344097528       -0.49051346142669       -0.92865035303576
O            0.07811181339141        0.03737924503499        1.59589841213215
C            1.52357966327695        1.54005954172497       -0.15706815172145
C            0.09573481995300        1.81795043090575        0.06233157853467
C           -1.95378014577528        1.16554938684043        1.09626407678049
C            3.06552967617311        0.00250958776073       -1.03676351250184
C            4.14513808938382        0.87212006988101       -0.78256759422625
C            2.51602892399233        2.44761242591352        0.09294054105464
C            3.86308710934527        2.13546235808813       -0.19332328892446
C           -0.52984991485725        2.84277427584888       -0.57345743897681
C           -1.93171161844713        3.07178072315246       -0.41184217458833
C           -2.64805285387148        2.19742878524007        0.46083052259443
H            2.26126294039924        3.40099131214900        0.52686499161925
C            4.92245360650649        3.01738030428519        0.07239306341352
H            0.03811002257241        3.47579588709349       -1.23577364521958
C           -2.60540721874837        4.09079828171784       -1.07183135788344
C           -4.03075430994476        2.41548992443881        0.64465758841767
Cl          -2.70842167445306        0.07077659509646        2.16404239739259
N            1.80478856738419        0.32079808807060       -0.70780673290166
N           -0.60201192120158        0.99740445797591        0.89814127524404
Cl           3.26574861933583       -1.50621306597005       -1.80776868395071
C            5.47671248365042        0.53867322258467       -1.08771080502866
C            6.21587157472956        2.66390953610190       -0.23017799895710
C            6.49094558835994        1.42328402239053       -0.81092158374088
H            5.68445728951343       -0.41993571619089       -1.53431213736774
H            4.70193081025322        3.97428505095832        0.52065473631785
H            7.02555951759487        3.34571544797298       -0.01894754309882
H            7.51133305524765        1.15877044679789       -1.04245209669530
C           -3.96655603874167        4.27719367528937       -0.88260713145688
C           -4.66589373493190        3.43945493846500       -0.01943541069242
H           -4.57736583849200        1.76810302739371        1.30997663730382
H           -2.05395556147619        4.74099783748166       -1.73472719310007
H           -4.47955308761801        5.07255895896805       -1.40033897725125
H           -5.72389345565104        3.59424156927324        0.13165445246892
