63
 energy: -105.890665884315 gnorm: 0.000406216523 xtb: 6.5.1 (b24c23e)
Si          -0.17507151871001       -1.70244547712509       -0.42762616697987
O            1.41106435180295       -1.34223552684250       -0.44036474260105
C            2.53947006752988       -2.08925580819267       -0.05289856992957
C            3.33228235126882       -1.33964887641124        0.98682700205758
H            2.21192912954234       -3.05092627794037        0.35657077406062
C            3.42192951876190        0.04436209884960        0.94083775738176
C            4.00913536345511       -2.03004233659359        1.98354869892589
C            4.16853052016103        0.73245057916700        1.88015143179897
H            2.89433036568082        0.58216762039998        0.16918131956043
C            4.76468502406496       -1.34318004098184        2.91690861073431
H            3.93640201278466       -3.10694209206075        2.02906918963727
C            4.84515708010955        0.03887767455941        2.86859077881541
H            4.22227448221337        1.81101283274913        1.83433955036319
H            5.28851472464335       -1.88791909488450        3.68859752462482
H            5.43182479678148        0.57304886902700        3.60152940788047
C            3.42004188116339       -2.35460823646148       -1.29194819206964
C            2.63849624044055       -2.98204506113970       -2.33563839747510
H            3.82914099930829       -1.40678567494257       -1.65260340867316
H            4.24839557424241       -3.00404830437464       -0.99889982318811
C            1.92834961697082       -3.47107125815739       -3.16511522112083
H            1.31809334420184       -3.91287801599181       -3.89454966662781
Cl          -1.25246765585134       -2.65005540391396       -1.89631661068474
Cl          -0.06865929459790       -3.45271089642584        0.82600422278536
O           -0.96306731925654       -0.92559424085605        0.89046916107773
O           -0.48562066942277       -0.21374489565632       -1.45971551100445
C           -1.82219629186222        1.18319078482236        0.36936948700588
C           -0.48478337835724        1.61939087536129       -0.05827492147792
C            1.21909953459449        1.36032264840073       -1.69242676863108
C           -3.26751805093390       -0.60320244060122        1.02086236591719
C           -4.38106980990120        0.25432332319926        0.94642081606273
C           -2.86601154866501        2.06258891785983        0.33869806156267
C           -4.18793203086229        1.63264327970443        0.63445874334777
C            0.10316454641141        2.74788704034205        0.44261712904384
C            1.32895873135383        3.21830750591388       -0.09643551359485
C            1.86938660538114        2.52124687565877       -1.21452138845013
H           -2.69118046512113        3.08272011340155        0.03792160956169
C           -5.27796501297137        2.50075840251922        0.58949335967033
H           -0.36625652078589        3.27719951490795        1.25531607166964
C            1.98868179279930        4.33918174606307        0.41114167845182
C            3.05658028974931        3.01146375826266       -1.79571888552202
C            1.70213520932286        0.60071278702998       -2.87786459263502
N           -2.03294196226515       -0.10273127229392        0.74874912504433
N            0.09954661328304        0.93398700849388       -1.07371666136280
C           -3.36107240046597       -2.04171224581616        1.38490652457681
C           -5.70282165707108       -0.19302503916233        1.16957909296745
C           -6.55647456164766        2.03540512456650        0.83415619340870
C           -6.75944889638142        0.68639545222124        1.11417015956770
H           -5.88763931138631       -1.23387905629118        1.37539926229491
H           -5.10908264114248        3.54127336532749        0.35551461636590
H           -7.39563259511955        2.71262038069841        0.79887888099786
H           -7.76166609335044        0.32428413853679        1.28853141013758
C            3.16162234074924        4.78459480407635       -0.16900268781246
C            3.68555320513994        4.12113375203206       -1.27380781102146
H            3.47920479127545        2.51228211681913       -2.65186123531394
H            1.56812144169681        4.85246977154943        1.26273949354437
H            3.66815615241280        5.64939209682881        0.23127834417727
H            4.59723740671440        4.47870542957986       -1.72854482505598
H           -2.41363285659382       -2.39866912562506        1.78090553870395
H           -4.13705143040371       -2.20508921863563        2.12741126793029
H           -3.59115806738681       -2.64097550133704        0.50151488161673
H            2.75800686666989        0.35821083250156       -2.78067993344363
H            1.14371987991712       -0.32416421034724       -2.98442615979721
H            1.57278818792426        1.19748110762639       -3.78219184888092
