63
 energy: -105.884654371791 gnorm: 0.000564030203 xtb: 6.5.1 (b24c23e)
Si           0.76667076225763       -0.38086542467157       -0.16724163283703
O            2.15262996359082       -1.20971276916193       -0.16878055870864
C            3.28908854120006       -1.23191972453144        0.65536259239162
C            4.52687154248028       -1.41520135299486       -0.18509154411246
H            3.35623399062275       -0.29558643711027        1.22122653889435
C            4.46143604870055       -2.06356328363128       -1.41038211478011
C            5.75482249117144       -0.96799554400171        0.28584912166115
C            5.60999902169203       -2.25766516720811       -2.15747081919502
H            3.50352117668101       -2.40114363236967       -1.77481766569273
C            6.90280512397658       -1.17004382136826       -0.45866643117316
H            5.80753566486701       -0.45710841356337        1.23707976180541
C            6.83256246823060       -1.81527261106741       -1.68225742786310
H            5.54999548536794       -2.75846865729012       -3.11267420484067
H            7.85403712963704       -0.81940710422366       -0.08542720537297
H            7.72933055126206       -1.96996617828810       -2.26426214887852
C            3.15321054855273       -2.41228931362346        1.64099541966007
C            2.05306904957149       -2.19739120443182        2.55417637526765
H            4.08573069216652       -2.51803342046645        2.20080197086797
H            2.97800481646459       -3.32289650436040        1.06161671007699
C            1.12254672281397       -1.98155098711417        3.27506520185797
H            0.32764933117674       -1.79114239974424        3.93231978323486
Cl           1.44606326755286        1.14024438772949        1.25818024860485
Cl           0.10427393245733       -1.79778173654374       -1.64890510492826
O            0.11590018285699        0.81464075070276       -1.23407610664553
O           -0.57380266552919       -0.60107746969112        0.88397256446924
C           -1.77840689520141        1.62117668221299       -0.16244020381663
C           -2.38808391793996        0.27832771286198       -0.26556955215484
C           -2.31594910392229       -2.04203409307311        0.28887779134595
C            0.02893070509382        3.08880769609081       -0.68584918987533
C           -0.64203891946022        4.16087398586627       -0.06602504126869
C           -2.48532264594197        2.64084715816012        0.40575143133406
C           -1.93535541428059        3.94951664956525        0.49186391190207
C           -3.59977026813690        0.13064111220868       -0.87456708677761
C           -4.22417902576743       -1.14464389471862       -0.95278815055657
C           -3.55187127147764       -2.24808732496032       -0.35387836729545
H           -3.45985837980820        2.44306047703444        0.82180284175120
C           -2.61629401947548        5.00473771169554        1.09710783395682
H           -4.07431627226390        0.98609852561703       -1.32716292427438
C           -5.44925049310290       -1.33558047648712       -1.59041307963565
C           -4.15598193994503       -3.52109985077123       -0.43802037105974
C           -1.55360663353177       -3.13691466426785        0.94498451254733
N           -0.55528019140924        1.86870646581899       -0.69897970347472
N           -1.79206618449375       -0.79575042657137        0.31366833967303
C            1.35842342975747        3.23212006153836       -1.33653492739808
C           -0.07716910152349        5.45061223866167        0.03322180110487
C           -2.04181424481625        6.26068158245215        1.16821722338601
C           -0.77152478519027        6.47276003240475        0.64001972626903
H            0.91009028368945        5.63245201554012       -0.35682191576835
H           -3.59707310629309        4.82674244460813        1.51218080308641
H           -2.57443676215381        7.07335466935421        1.63753096470631
H           -0.32348422954533        7.45290912877711        0.70879348416907
C           -6.02053061862719       -2.59339714726958       -1.64881055870238
C           -5.36645933700757       -3.67945964242821       -1.07357920905712
H           -3.66043207567854       -4.37594561702994       -0.00984161791510
H           -5.94411619417993       -0.48804492211564       -2.04049740658385
H           -6.96904454555466       -2.73437843934013       -2.14359645623601
H           -5.81462669441803       -4.66040124510756       -1.12856674643754
H            1.56906781784314        2.36303746186638       -1.95343460221907
H            1.38744296618675        4.12672340006577       -1.95535662280773
H            2.13671584222655        3.30402427875439       -0.57609684704641
H           -1.13939557216425       -3.79710220711313        0.18275487253567
H           -0.72764440668568       -2.73437263342419        1.52582097948910
H           -2.20200163467628       -3.71876188768844        1.59791573936610
