63
 energy: -105.889362694260 gnorm: 0.001000833135 xtb: 6.5.1 (b24c23e)
Si          -1.00275754255130       -0.30058354788704        0.62566360184348
O           -1.73617135126028        0.60644168801765       -0.49498429692398
C           -3.00126260121738        1.22556502740064       -0.46675053821075
C           -4.10270920184932        0.19816886010487       -0.49774714371658
H           -3.08748672405288        1.82102054321051        0.45073256551206
C           -3.96258714515503       -0.93603844621719       -1.28563655804290
C           -5.25008300791897        0.36218019310753        0.26449308706039
C           -4.95448824129850       -1.89909583957605       -1.30709605467551
H           -3.05989423857241       -1.06498899529489       -1.86427172009423
C           -6.24533100268675       -0.59864173372481        0.23726269624107
H           -5.35415866305566        1.23496137465892        0.89213034955128
C           -6.09914480277036       -1.73048255274328       -0.54670580864577
H           -4.83256371198680       -2.78392459236918       -1.91466617718974
H           -7.13260162002651       -0.46874843370220        0.83920138266381
H           -6.87278956511725       -2.48412675400932       -0.55883400416066
C           -3.08049558298486        2.15155225280021       -1.69413334224924
C           -2.01436832042689        3.12969838216823       -1.66997271099686
H           -4.05168346135505        2.65241504340071       -1.70002501707281
H           -2.98646765312873        1.54427490849989       -2.59756422664738
C           -1.10771046644255        3.90997768047286       -1.61787346595447
H           -0.31490989072712        4.59718391742729       -1.59476310502747
Cl          -1.27610519782694       -2.30286467885374        1.06964960645708
Cl          -2.24472589163495        0.28588652604844        2.31796492682430
O            0.10380990328784       -0.72787540741041       -0.77749830528088
O            0.32803146776471        0.39423776496956        1.46117290995234
C            2.27177576648517       -0.85015081708960        0.00759723758558
C            2.22112077452948        0.61539237940871        0.12090110271634
C            1.05530356336119        2.54394034814437        0.90176545283283
C            1.20011777344077       -2.78522041883412       -0.85832094739225
C            2.31703606330048       -3.57368797496971       -0.50561139926500
C            3.39493601689430       -1.55916805748288        0.32688914844513
C            3.44166686362514       -2.96241470524183        0.11700291950073
C            3.17060646320470        1.38649514647062       -0.48565867559141
C            3.08206384636264        2.80548001836541       -0.45070061152129
C            1.98169735701692        3.37987983787210        0.24953817282891
H            4.24145335957011       -1.04971315842866        0.75731460067284
C            4.54756285183787       -3.73646226620446        0.47399560521094
H            3.96939935923502        0.91277307962468       -1.03244101329426
C            4.00938435053945        3.62598480872001       -1.09054287620625
C            1.86229542675033        4.78765962482827        0.25643697207973
C           -0.09054482601534        3.07416995709196        1.68706087216216
N            1.19577702929821       -1.47409483295410       -0.53876840479569
N            1.21295863462161        1.19843981156537        0.81370369310398
C            0.04549198818198       -3.33056491595543       -1.62146703721377
C            2.35914967447087       -4.96252275134358       -0.74437213138517
C            4.55830898825744       -5.09613463291050        0.22928450219172
C            3.46196947782250       -5.70178770331919       -0.37826517339008
H            1.51474416618318       -5.45046059576997       -1.20139262357554
H            5.39224696728199       -3.25692359960059        0.94541025388315
H            5.41511430436185       -5.68909627329425        0.51013070150898
H            3.47551699448425       -6.76556633367129       -0.56280594005705
C            3.86856681065334        5.00227940178631       -1.06046768313838
C            2.79140275993218        5.57305204378095       -0.38921202900051
H            1.03345675673900        5.25008965037069        0.76666391848594
H            4.83743152221243        3.17219654951690       -1.61421586848719
H            4.58923974745439        5.63126932012829       -1.55969296796160
H            2.68136819538492        6.64754017087346       -0.37522289507114
H           -0.60158278135789       -2.51655795149794       -1.93368578054632
H            0.39898489605499       -3.86988253988289       -2.49955171923463
H           -0.53834693473014       -4.00972467281990       -1.00190610101566
H           -0.85685266636183        3.45941644235203        1.01091991602862
H           -0.53860991679471        2.29340592835304        2.29465821999998
H            0.23415288870508        3.88277650152374        2.33928093768740
