63
 energy: -105.890562227518 gnorm: 0.000804543617 xtb: 6.5.1 (b24c23e)
Si           0.31294262443426       -1.71706306991930        1.00950167378961
O           -0.75862902605100       -2.49337883661323        0.07459078857871
C           -1.05004138823431       -2.40074397629913       -1.30695971216358
C           -2.04311398279294       -1.28997571690805       -1.53424137327096
H           -0.12973536863074       -2.18264324517140       -1.85565796015790
C           -3.28196974637589       -1.32168460078523       -0.90521577812519
C           -1.72226831037578       -0.20517070021266       -2.33821371686757
C           -4.19002102649646       -0.29581401569157       -1.09395469121055
H           -3.53006217468814       -2.15409967299103       -0.26344619164142
C           -2.62981167540834        0.82321456789629       -2.52420434195685
H           -0.75559675984640       -0.16800546834033       -2.81933344581838
C           -3.86808035801726        0.77675435158262       -1.90824676072913
H           -5.15252442469631       -0.33251694704263       -0.60572169176506
H           -2.36994958656916        1.66323063394657       -3.15166675685418
H           -4.57594804615729        1.57838973263602       -2.05459072583771
C           -1.59108520464138       -3.76541276039679       -1.76405379450109
C           -0.52511354816089       -4.74471996831021       -1.77907523125535
H           -2.02019186118693       -3.66423411131075       -2.76472926307584
H           -2.36848612402995       -4.09156280081759       -1.07065240040167
C            0.39431930653005       -5.50985443778657       -1.77887846115762
H            1.17989707455657       -6.20459193622977       -1.77370011973248
Cl          -0.40296836343930       -2.77119622024776        2.69298807294494
Cl           2.29020042513034       -2.18422212731575        1.36848668568192
O            0.83570921872024       -0.71126216138925       -0.52165811333580
O           -0.05069758316850       -0.22653294487098        1.78335959214256
C            1.39197672114648        1.42938302357954        0.11328862649664
C           -0.03842983348744        1.64554662871320        0.37591171502457
C           -2.04368603999113        0.93125169356264        1.46853159301970
C            3.03687638149458       -0.01317943365525       -0.81000303157238
C            4.02971360041282        0.97171113672252       -0.60764137985126
C            2.30623614923265        2.43122810440809        0.29085976097287
C            3.67055498568844        2.22377057402865       -0.03481609058365
C           -0.68611433823017        2.71025339275035       -0.18073628556472
C           -2.07105405943792        2.92644433791967        0.05579569707213
C           -2.75537221516871        2.00371426012397        0.90330053448858
H            1.98688933627759        3.37478661458978        0.70202386781430
C            4.64695192266959        3.20184995072978        0.17185919600506
H           -0.14413377255118        3.38110445621362       -0.82701372985429
C           -2.75521372069994        3.99630904691297       -0.51690910125653
C           -4.13345546404309        2.22292282914933        1.12916696502476
C           -2.61032431063536       -0.08528108732916        2.39231634617229
N            1.77631464974629        0.23323308883345       -0.40193490439002
N           -0.71886561775684        0.79459263509594        1.18202582473789
C            3.32606533617963       -1.29950411887655       -1.50075228822689
C            5.37906355103398        0.75616785683624       -0.95120493501638
C            5.96194366418602        2.96030669842454       -0.17297166864757
C            6.32123000001175        1.73688541709704       -0.73196777834712
H            5.67810405500048       -0.18828006044255       -1.37386648941786
H            4.35758147696045        4.14631192567296        0.60748376411896
H            6.71200293982449        3.71842329025463       -0.00749826479629
H            7.35214221683043        1.55329215311516       -0.99455818052882
C           -4.10391334904166        4.18258220829019       -0.27243976387968
C           -4.78260394397600        3.28999922001183        0.55174243148611
H           -4.69049153754950        1.54734233759549        1.75624049624119
H           -2.21593053935467        4.68067804352773       -1.15492927426790
H           -4.62691122734198        5.01427818784495       -0.71866280315285
H           -5.83607369668206        3.43533100927096        0.74076484063932
H            2.40541467924826       -1.84921597807841       -1.67192491821001
H            3.81525856868751       -1.11085232356753       -2.45607731501121
H            3.97771293866535       -1.92126008695694       -0.88864180529884
H           -2.68878458345650       -1.05083632587702        1.89131384406462
H           -1.94153478391846       -0.23532096913899        3.24001035057201
H           -3.58883323037867        0.20330969523528        2.75618987064435
