63
 energy: -105.890333541368 gnorm: 0.000400384214 xtb: 6.5.1 (b24c23e)
Si           0.14263718341978       -1.54145539800521        0.64257778156808
O           -0.90187357464123       -1.96137050843435       -0.51441203373534
C           -2.19797348972697       -2.50216295508752       -0.48573770414070
C           -3.20967322763988       -1.39940634850613       -0.67895031823237
H           -2.36792476405357       -2.99760832577729        0.47817662833950
C           -2.87034860118722       -0.26098866830902       -1.39898964325234
C           -4.48558307758857       -1.50940465589735       -0.14144722499870
C           -3.78928925729210        0.75891168688274       -1.57145147591362
H           -1.87543251722287       -0.17955187920211       -1.81026238570330
C           -5.40655525437988       -0.49133947128268       -0.31990155438735
H           -4.75070370371699       -2.38949171248996        0.42620154107925
C           -5.05925262301148        0.64558636305686       -1.03167262057226
H           -3.51420271578576        1.64473226590847       -2.12535188832411
H           -6.39578249803252       -0.58254938026112        0.10440096604448
H           -5.77582656634513        1.44269210704665       -1.16378088560713
C           -2.30530227826047       -3.53982367951552       -1.61914655494165
C           -1.38114497128956       -4.62969710406873       -1.38951320803711
H           -3.32942091979509       -3.91874694932047       -1.66206448544844
H           -2.06463994190534       -3.04939884586006       -2.56585617276115
C           -0.59401411114876       -5.50118914677361       -1.16165625838732
H            0.08859570045728       -6.27418343046814       -0.97134786006275
Cl          -0.90722456897803       -2.43393992050275        2.32389814953355
Cl           1.88409491117193       -2.53788562573109        1.10958887569330
O            0.95141119877848       -0.67712151300920       -0.76691732998747
O            0.05878625260522       -0.04765641964532        1.50007520309784
C            1.95502879198308        1.24706473859697       -0.00166557848406
C            0.59542386744401        1.78873866468720        0.15752418672565
C           -1.58342248593895        1.56657584158880        1.10519262973308
C            3.27535093287594       -0.51967831490828       -0.88556418472882
C            4.45382482496430        0.18934058372548       -0.56465351006777
C            3.06219558868367        1.99294103481877        0.28831258394213
C            4.35985803086995        1.47028899379494        0.04895727886675
C            0.25327386187910        2.96595063102069       -0.44380257319076
C           -1.06652138082377        3.48495059541938       -0.32832322973890
C           -1.99197822896308        2.75606124345760        0.47286423731001
H            2.94624819630884        2.97401628965912        0.71897702484375
C            5.52152534930335        2.17454145927242        0.37380876921301
H            0.98526066276200        3.49042034966182       -1.03604502306470
C           -1.46571536242849        4.65834306102275       -0.96475749720581
C           -3.30423841287470        3.26122050104090        0.59999233094882
C           -2.47802132939670        0.80600471324142        2.01900561713682
N            2.08300644826075        0.01071796108146       -0.54824969087046
N           -0.31576433739423        1.11699424795257        0.90460157000033
C            3.29188997520036       -1.80719355274107       -1.62967869610285
C            5.73659271577240       -0.33308612252803       -0.82751159297789
C            6.76437698615587        1.63474161396683        0.10692973685980
C            6.86462437617006        0.38168940142332       -0.49201664235766
H            5.83264410488007       -1.30588020169422       -1.27957128407933
H            5.43264572390419        3.14487981650275        0.83879458315526
H            7.65802108666212        2.18245373399956        0.36386405392716
H            7.83976993658805       -0.03560833252817       -0.69379300666608
C           -2.76098600013864        5.12621787271318       -0.82570575218825
C           -3.67098685426995        4.42261736204642       -0.04284494171718
H           -4.02516862323758        2.72655629011649        1.19488735797753
H           -0.75093264616404        5.19740927163355       -1.56853522803564
H           -3.06376252119164        6.03470079881534       -1.32311226185839
H           -4.68021206255250        4.79236669476509        0.06220085173161
H            2.27760945208675       -2.09464036361345       -1.89098665687396
H            3.88653983787461       -1.70703429822185       -2.53718137338912
H            3.71989272265637       -2.59767782369838       -1.01513057415726
H           -3.34845514412529        0.43129230880436        1.48096748006429
H           -1.95969707230961       -0.04041405816375        2.45880888467531
H           -2.82873759590680        1.45501650851983        2.82171657978169
