63
 energy: -105.889270649145 gnorm: 0.000419493992 xtb: 6.5.1 (b24c23e)
Si           1.06624554002507       -0.11165101660785        0.70387052691173
O            1.47850444756152       -1.17548931650304       -0.44315553642488
C            2.47702813138667       -2.16877426541429       -0.43006536612405
C            3.84899631842382       -1.54609907836746       -0.42036568256632
H            2.35192354752967       -2.78941109905492        0.46611084693035
C            4.08514126328127       -0.39767450733225       -1.16365080882780
C            4.87696487509845       -2.09584739631590        0.33128441340393
C            5.33178317513847        0.19980225056148       -1.15066387198655
H            3.27573702922369        0.03176756725960       -1.73511268962051
C            6.12689374080914       -1.50207957695592        0.33726621630921
H            4.69189076323642       -2.97974582763665        0.92375830566528
C            6.35605512402920       -0.35378036041034       -0.40147094284769
H            5.50384679057448        1.09929861061292       -1.72358493707336
H            6.92154704263816       -1.93136417235234        0.92941662965558
H            7.32986659931176        0.11325602172920       -0.38780599343360
C            2.28058902051817       -3.03005335769417       -1.69095837345603
C            0.95718710416983       -3.61417206301163       -1.71789447810912
H            3.03933062288616       -3.81633139152093       -1.70535410929519
H            2.40781750845981       -2.39526411532902       -2.57130111890770
C           -0.15329512528212       -4.06125355128640       -1.71649451389505
H           -1.12326754995582       -4.46104226327655       -1.73953838492930
Cl           2.02588767503771        1.61741664230323        1.31274952455265
Cl           1.88268798617141       -1.20724163464612        2.40119875649764
O            0.30396041631135        0.77469995976227       -0.71566053074649
O           -0.48423227160895       -0.29596512599984        1.41991446216640
C           -1.72803337872548        1.63949816018308       -0.04394927945105
C           -2.21801801528638        0.25263678275721       -0.03706080823814
C           -1.90492628411675       -1.99939171901998        0.68368465220122
C            0.03695782941668        3.09221145910918       -0.68984942332857
C           -0.74578086468995        4.21433940497432       -0.34074943717582
C           -2.54297947708741        2.69188777521502        0.26378356315596
C           -2.06361469018992        4.02427196722333        0.16250974113900
C           -3.32863776021146       -0.08971149309976       -0.75343361191111
C           -3.76594065912886       -1.44176410875203       -0.80990489431162
C           -3.01606827187963       -2.40813989456490       -0.07848239678130
H           -3.54862943070477        2.50479054817697        0.60298295311137
C           -2.84249127256230        5.12887992905421        0.51284736221839
H           -3.85276859482076        0.66699553690299       -1.31393072776993
C           -4.87086378829111       -1.83638285089758       -1.56223456009575
C           -3.42417905708127       -3.75863809752785       -0.15353590112638
C           -1.10061070663019       -2.94259642764469        1.50446935828386
N           -0.45885072575506        1.85508629757397       -0.47715684026946
N           -1.55043924485745       -0.68895112908340        0.67295033195270
C            1.36992912188133        3.21864766152801       -1.33807713192710
C           -0.26380911307762        5.53300281207479       -0.46875359917259
C           -2.34164929734840        6.40939264212988        0.37769122133045
C           -1.05301335568274        6.60371587791180       -0.11153203532463
H            0.73554653641122        5.70209739079499       -0.83295886209754
H           -3.84015937974120        4.96706437477332        0.89249496845191
H           -2.94797332164093        7.25868408925797        0.65276684329298
H           -0.66626322426548        7.60697460878818       -0.21023161763902
C           -5.24824388900330       -3.16670630827576       -1.61206672558362
C           -4.51843745064150       -4.11962286259253       -0.90788286446060
H           -2.87157127152170       -4.51329506728377        0.38156000129216
H           -5.42644559980347       -1.08931623030022       -2.10909749508943
H           -6.10387212689688       -3.46524846934307       -2.19773237505401
H           -4.81376516685144       -5.15763611885925       -0.95428953544858
H            1.70348484550292        2.24338163129648       -1.67899046016287
H            1.30984972487102        3.89852356794122       -2.18717060975196
H            2.10607073640413        3.60031121908584       -0.63203350159664
H           -0.45743059610764       -3.54308750860827        0.85740979429001
H           -0.46511888751089       -2.40411271648567        2.20141273324307
H           -1.74968766734726       -3.61151566692858        2.06608482596405
