63
 energy: -105.807265763411 gnorm: 0.000669975760 xtb: 6.5.1 (b24c23e)
Si           0.43786283501415       -0.97952718888305        0.94113876928327
O            2.02798258802669       -1.44359809952076        0.35749602512018
C            2.42538858082811       -1.82401283825995       -0.79161151708983
C            3.79584661106529       -1.88195437760814       -1.13589743282203
H            1.68331446845630       -2.10858093915379       -1.53594685163467
C            4.79042076059725       -1.49706887661303       -0.21159883482575
C            4.19451894673449       -2.32541014462460       -2.41339812996110
C            6.11968830845051       -1.55605014890028       -0.55794634678678
H            4.47337691122397       -1.15836692557489        0.76324597483366
C            5.52908783234956       -2.37878123017241       -2.74363779491444
H            3.43816172382174       -2.62557307926531       -3.12322899461711
C            6.49786984674210       -1.99563814095014       -1.82225477746518
H            6.87647356220416       -1.26175956066527        0.15465514327446
H            5.82903245428509       -2.72162769588872       -3.72328004430306
H            7.54320589961967       -2.04143612728239       -2.08859922700677
C            3.74323793619885        0.67284855267928        2.46316248353062
C            2.46456914502074        0.57547898560928        2.26010758637057
H            4.38007824464334        1.31120338969367        1.86928116627048
H            4.22382673063488        0.12773378995141        3.25979997873478
C            1.20511114326577        0.42574167081818        2.02101151530531
H            0.49489868556310        1.06820796369719        2.52378221000902
Cl          -0.57498623677840       -2.40951513722475       -0.42739296606253
Cl           0.47726333526721       -2.41454318797915        2.52389059433285
O           -1.22672959573556       -0.27508843884605        1.47654126911343
O            0.25541078848498        0.17965882879997       -0.61487403203936
C           -2.37927479606496        0.63074271979332       -0.27102038138389
C           -1.39823134638386        1.73053245249257       -0.24296078050136
C            0.86470958885415        2.40073962450947       -0.45757759578598
C           -3.12356593911341       -1.36927697915335        0.75737973871109
C           -4.19186459598491       -1.45465124032355       -0.16650167542737
C           -3.41994194921948        0.62294495192032       -1.15553325628233
C           -4.35257313448743       -0.43732732724703       -1.14562687873734
C           -1.80821860487509        3.02284372279100       -0.06918425314009
C           -0.86721727379463        4.07957372890309       -0.04131950290603
C            0.50118623032288        3.74717145339229       -0.24184588185535
H           -3.50666597791042        1.41324983617755       -1.88424047215350
C           -5.41185268854959       -0.51459464470464       -2.06349550627722
H           -2.85639159391621        3.23257181758931        0.07258933428571
C           -1.23876939199527        5.41243981194036        0.17038725507895
C            1.45236077741043        4.78889476742740       -0.21995603313326
C            2.26598945766205        1.99580291536302       -0.75658792725724
N           -2.26138159346918       -0.35462167641538        0.66020957824350
N           -0.08044613968951        1.44234162341595       -0.43080374945005
C           -2.93140832511397       -2.35146814429648        1.85204334615772
C           -5.10294485278043       -2.53090466497700       -0.15994728833109
C           -6.28549320431668       -1.57357932627512       -2.02750955091981
C           -6.12415079744626       -2.58457938056601       -1.07536942643936
H           -4.98345461037744       -3.32368423681853        0.55928288632756
H           -5.52159580660859        0.26758019501371       -2.79970304028489
H           -7.09606716310417       -1.63266571391519       -2.73791277195771
H           -6.81072510427765       -3.41751736722842       -1.06516658849754
C           -0.28542621618551        6.40673006608808        0.18965166277204
C            1.05890160023631        6.08854451052981       -0.00538336545461
H            2.49535172362804        4.56126055016707       -0.36383574015336
H           -2.28195774120585        5.64609988121693        0.32145906145802
H           -0.57556932602533        7.43257938170047        0.35715012697641
H            1.79901941310373        6.87438055258430        0.01397269279963
H           -2.17350108621507       -1.99945710753565        2.54744931431277
H           -3.86656297323470       -2.52766673374414        2.37977656720507
H           -2.57509910601736       -3.29567994318553        1.44099563874842
H            2.91765318648614        2.23755898261121        0.08083583608334
H            2.31462144125095        0.92442195363221       -0.92839431675151
H            2.62965041341899        2.51504594329454       -1.64339682272190
