63
 energy: -105.888700615405 gnorm: 0.000591113736 xtb: 6.5.1 (b24c23e)
Si           0.02029649682686       -1.88109756583058       -0.44761901666898
O            1.58825070344561       -1.47324340482178       -0.43443982588056
C            2.73276200854511       -1.41484357232488        0.38711860322598
C            2.58618247832082       -0.29718612963855        1.39244504910805
H            3.54605545964381       -1.15981401703835       -0.30980893598891
C            1.54353683850619       -0.30541073551039        2.31042615121698
C            3.47249956943422        0.77186126360641        1.38340574417158
C            1.37717294808942        0.75365334231291        3.18481254432896
H            0.85404909789999       -1.13462836868437        2.33187236818560
C            3.31657894985541        1.82100518452225        2.27176805621064
H            4.28989975161954        0.78525916006062        0.67620404609144
C            2.26133294629020        1.81902276451446        3.16709989667722
H            0.55643071162429        0.74265828062015        3.88699452076493
H            4.01548798001128        2.64399461227475        2.25649617696235
H            2.13151423490388        2.64349216894288        3.85290405337079
C            3.09781957844939       -2.74634082457942        1.06302838455863
C            3.26925894371043       -3.78214716336173        0.06740981974946
H            4.02964833602085       -2.59845911527916        1.61620114488205
H            2.31276463914336       -3.04486352913441        1.75822973643399
C            3.38790143617544       -4.59457745662700       -0.80254265931123
H            3.48580912600623       -5.33456993049107       -1.53894059517681
Cl          -0.70084345889612       -3.04515582849315       -1.96586240494646
Cl          -0.01203730237540       -3.45284298333485        1.01016072137580
O           -0.99606630474609       -1.03715301131534        0.65694024482468
O           -0.26310173421123       -0.47214129546850       -1.65463179533211
C           -1.74360241231230        1.06274709514722       -0.06314847582680
C           -0.36215469316013        1.44813448224946       -0.37947101219603
C            1.50245746234463        1.03463869696110       -1.78731096089932
C           -3.28758325348977       -0.67755335266321        0.49674343654927
C           -4.36964949500403        0.19867761210211        0.30177452006877
C           -2.76127681857962        1.95791458193711       -0.22131938929933
C           -4.11364757924920        1.56447284920708       -0.02837619942769
C            0.20600497436801        2.58997879183904        0.11478429444999
C            1.50490486731360        2.97960386720178       -0.29762625459650
C            2.15117461275524        2.18392543059786       -1.28442997078171
H           -2.53862028701054        2.96212869975836       -0.54303420810604
C           -5.17060004391182        2.45838230596558       -0.19105125959355
H           -0.33099820622330        3.18156000741784        0.83757978809970
C            2.14557605681143        4.11006574603497        0.21418300928493
C            3.43534424589560        2.56924930206789       -1.71797938381060
C            2.07494690117780        0.19785702142663       -2.87717253949050
N           -2.02008195161655       -0.20370905830897        0.33803029609449
N            0.30041875699573        0.68821732372499       -1.28825767216083
C           -3.40998527000739       -2.11153743341590        0.87054347603214
C           -5.72015909934474       -0.20398668538366        0.41986392646199
C           -6.47869206196112        2.03556403556895       -0.04593700265856
C           -6.74213127549222        0.70076360094526        0.25106718971648
H           -5.95748740114126       -1.23158957762566        0.63827996320555
H           -4.95167282899490        3.48687257816129       -0.43668935468266
H           -7.29181987262283        2.73340346320765       -0.17131916457463
H           -7.76524627265565        0.36946127494087        0.34881699297500
C            3.40646925579745        4.46072288311543       -0.22805855376561
C            4.04562100147019        3.68709350826543       -1.19179342305276
H            3.94743161494181        1.97979754781089       -2.46064867642346
H            1.64113396596361        4.70269009597010        0.96217086340375
H            3.89653298106704        5.33463859115305        0.17338029377957
H            5.03187939797737        3.96566324444926       -1.53225010191224
H           -2.62557408547512       -2.38799838153937        1.57393411454647
H           -4.37527264943558       -2.32771010527037        1.31378998854920
H           -3.27827946175711       -2.74134693564197       -0.01251266418831
H            2.97832030692497       -0.31158324883266       -2.54497657482031
H            1.35387977331396       -0.55731420832329       -3.17595393593545
H            2.32513141003412        0.81904750485530       -3.73689240384862
