63
 energy: -105.890351613960 gnorm: 0.000949529111 xtb: 6.5.1 (b24c23e)
Si           0.19797420185395       -1.63915806527062        0.38322031307975
O           -1.40028795611277       -1.33688426353022        0.35637928853474
C           -2.49274086450634       -2.13925512833196       -0.01821445907939
C           -3.45439098964943       -1.36610075217600       -0.88486962918908
H           -2.12668867613897       -3.01237394025192       -0.57100688776043
C           -3.49067548830079        0.01967806096194       -0.86410536644428
C           -4.35047960734381       -2.05306250376101       -1.69565830181131
C           -4.40498119232440        0.71319530356444       -1.63741130342397
H           -2.78915027099692        0.55550641204558       -0.24648275906814
C           -5.26823708615214       -1.36140539852846       -2.46441150950458
H           -4.32100138224100       -3.13278691741674       -1.72737535561733
C           -5.29947963358061        0.02368076850959       -2.43635773262373
H           -4.41593208034922        1.79365433674752       -1.60956993300572
H           -5.95989055256163       -1.90430164821889       -3.09175021456409
H           -6.01606004516545        0.56156843424156       -3.03945163748436
C           -3.22076234885873       -2.63605710003984        1.24967784341819
C           -2.32831593343520       -3.42683448638302        2.06920394522537
H           -4.08131936163823       -3.23732895776106        0.94674984003068
H           -3.57766419812941       -1.77389327422674        1.81951333875604
C           -1.54037832060243       -4.05358124325750        2.71536312752351
H           -0.85599186922241       -4.61920695531599        3.27326353755227
Cl           1.32911799831745       -2.51041251175296        1.86067249289355
Cl           0.17039767642962       -3.41368161894040       -0.84151595188415
O            0.99421507901457       -0.83785791980579       -0.91615719670726
O            0.42676529037652       -0.12864675713401        1.41517911919361
C            1.88451272277999        1.24168892387669       -0.34340688251504
C            0.53729017584023        1.70478593258354        0.01813331441064
C           -1.27870112123358        1.46215991105649        1.52766491779310
C            3.31216378358274       -0.56983385929275       -0.96246871058032
C            4.44121849946977        0.26105593371139       -0.83396965007017
C            2.94589108269360        2.09573771071882       -0.25819683452956
C            4.26790095227916        1.63873931465918       -0.50809770938889
C            0.00851359983123        2.85323029081997       -0.50426550877716
C           -1.23945061319672        3.34572623260256       -0.04162930380854
C           -1.87433671361719        2.64020099415245        1.01934297030481
H            2.78242773778317        3.11593060568525        0.04861566818309
C            5.37471991134452        2.48107144843732       -0.40990646147953
H            0.54205509566156        3.38013817028927       -1.27802252155550
C           -1.83462927032625        4.49244261494277       -0.57065104613275
C           -3.09521725264081        3.13916611589981        1.51595597569122
C           -1.86451880874827        0.69960230116493        2.66434620588708
N            2.08043390555000       -0.04435522040732       -0.73096058576217
N           -0.12481618646227        1.02098975030670        0.98599856966901
C            3.38659186747868       -2.00463670144327       -1.34228952897141
C            5.76014842746875       -0.21278533897519       -1.01560029260264
C            6.65042558453665        1.99057296367645       -0.61579011542925
C            6.83324549539605        0.64139456268647       -0.90905153291131
H            5.92971823842881       -1.25446102156464       -1.22987592889004
H            5.22046809009494        3.52159585803236       -0.16612027344931
H            7.50266420354303        2.64787818262164       -0.54040550212696
H            7.83279470527984        0.25918016440164       -1.05314557168321
C           -3.03801666374464        4.95213373840137       -0.06900977183220
C           -3.66001875175697        4.27387906238964        0.97395542234022
H           -3.59560459040570        2.62706518302778        2.32085137374893
H           -1.34072808552740        5.01393471917005       -1.37664080433225
H           -3.49327283787690        5.83806247412904       -0.48443366864108
H           -4.59815002571078        4.63924970153187        1.36421205557765
H            2.45343767371718       -2.32937145934762       -1.79587524029813
H            4.19889383558726       -2.18137957835110       -2.04124230978794
H            3.54725206843891       -2.62120050962460       -0.45539052313189
H           -2.88926262710313        0.40638933206298        2.44143040987705
H           -1.27802135085029       -0.19396657223124        2.85540595668856
H           -1.87503614626660        1.31628919422670        3.56406483047671
