63
 energy: -131.140042664212 gnorm: 0.000458971749 xtb: 6.5.1 (b24c23e)
Si           0.78085949273408       -0.82629494960291       -1.96752175910131
O           -1.83627534079582       -2.91182134866013       -0.91618572292258
C           -2.10912239459647       -2.69970623089200        0.24158122604980
C           -3.43279191476657       -2.34586535237160        0.75033731544139
H           -1.32705664924453       -2.76000797178067        1.02387996674906
C           -4.48161187592906       -2.10334014180532       -0.13887366909773
C           -3.65340166777220       -2.24140608667255        2.12355450908441
C           -5.72900602449726       -1.75895894633634        0.33998014033678
H           -4.28803761038156       -2.18345341358595       -1.19810275968375
C           -4.90640231600779       -1.90361756016958        2.59657068457231
H           -2.83734450245039       -2.41466818276111        2.80936359418381
C           -5.94199150592103       -1.66077215919112        1.70698731339752
H           -6.53804307949074       -1.56319815045738       -0.34780613488290
H           -5.07610400120294       -1.81839881095812        3.65949348521922
H           -6.91815591716292       -1.38830757027298        2.08075111132410
C            1.87337187953302       -2.30555712075271        1.56240703482685
C            1.46714582430478       -2.32295531139745        0.33738752564324
H            2.90764963334960       -2.44906265844894        1.82692857814142
H            1.18366216675678       -2.13154104733452        2.37198956184210
C            1.04657927897595       -2.33919559546798       -0.89504574715654
H            0.72539265050955       -3.28368502655766       -1.31563986822315
Cl          -1.07638463783554       -0.03426122876933       -1.73181240430636
Cl           1.13039744870769       -1.12192242723291       -3.90799137936975
O           -0.31477394144475        0.30151623928934        2.03080616509967
O            1.82187422145829        0.42746656789019       -1.62445109906261
C            0.54066414266950        1.68667188393795        0.44501786234227
C            1.84753335334878        1.05986749998379        0.66332500718760
C            3.81806644693168        0.16540240153870       -0.38189979670321
C           -1.72789567187013        1.79513393791438        1.04775626735115
C           -1.98247030345741        2.78739541684648        0.06684078747231
C            0.36475682421800        2.65327100330046       -0.50148337679217
C           -0.89668474249410        3.22644626131173       -0.73783225921850
C            2.40646760513253        0.88439239111944        1.88524569119408
C            3.67019963117746        0.23938030115466        2.04051290791681
C            4.37787127634631       -0.15832439293711        0.86293877566870
H            1.21314461250744        2.97426159872387       -1.08650957687779
H            1.87626577906749        1.20981823321344        2.76493668914130
N           -0.51944079849688        1.23094840900533        1.21787937692841
N            2.54463918611918        0.71890794880441       -0.47200222052091
C           -1.10195302094144        4.19567581079858       -1.73524327221960
C           -2.34862099806463        4.72164734082427       -1.93871763799759
H           -2.51183051808840        5.46191523472650       -2.70659497178451
C           -3.42291746095780        4.29485042145558       -1.14762617722586
H           -4.40330062658205        4.71308160030868       -1.31646792913669
H           -0.26043973724064        4.50535265241835       -2.33575579076385
C            4.20517627237258       -0.02158885519334        3.29871141446174
C            5.41139453740596       -0.68224354573923        3.42830073984618
H            5.82212779451515       -0.87950884179434        4.40598209795669
C            6.09060845107651       -1.10410196961808        2.28661127103186
H            3.65540725414653        0.29183730734067        4.17331625344808
H            7.02310604340566       -1.63841415980532        2.38916281974579
C            4.50487165183593       -0.00801170147389       -1.69408195378734
C           -2.87912975747754        1.34823759333820        1.91654587233220
C           -3.25327253120826        3.35322355367484       -0.16613952471483
H           -4.10687850019477        3.04869336663054        0.41455995107770
C            5.59393578800177       -0.85749612488919        1.02813662371128
H            6.13404882882646       -1.21524858341614        0.16857978662894
F           -3.88157748375228        0.82507565310077        1.18100700716862
F           -3.42191425949610        2.40584566455940        2.56648176204343
F           -2.61159167929564        0.46052871848156        2.86253507108155
F            4.11575791205442        0.89506223975469       -2.60611304455407
F            5.84040094878371        0.12061516715075       -1.61999349617191
F            4.29116653267268       -1.22387795219149       -2.25560267533720
