63
 energy: -131.220199460259 gnorm: 0.000426291517 xtb: 6.5.1 (b24c23e)
Si          -0.50162192695534       -1.83161619697635        0.21658758609918
O            1.03610224740188       -1.44161323226344        0.01284851427881
C            2.32199834115408       -1.71239651030561        0.53190329237393
C            2.70543191447947       -0.66464379806343        1.54995566956605
H            2.99680196317701       -1.65604484458636       -0.33102467340192
C            1.79910433587900       -0.25454334578751        2.51874198873248
C            3.98169714043351       -0.11660907579934        1.53696372398154
C            2.16174475986962        0.69818870637416        3.45394974535777
H            0.80510493079506       -0.67500656166960        2.53908883742820
C            4.34618736597391        0.82589421412960        2.48155282823772
H            4.68885864561299       -0.42876098849610        0.78295673911422
C            3.43604043246320        1.23831422484867        3.43948812931660
H            1.44778715797159        1.01156511794279        4.20085484904762
H            5.34203349721502        1.24245607076202        2.46620084848815
H            3.72055861776381        1.97674997918874        4.17400544272239
C            2.44684230838083       -3.11794569377449        1.14249226515726
C            2.07377461860421       -4.12633433112454        0.17393234841587
H            3.48658773118014       -3.26137329736032        1.44763883656075
H            1.80685670292914       -3.19795523973659        2.02301807850793
C            1.74056961322232       -4.90741287713982       -0.66871436579755
H            1.46099341694989       -5.62061648463105       -1.38484147400527
Cl          -1.34434646252295       -2.28745108134328       -1.51730196401946
Cl          -0.81225959569581       -3.21899980262066        1.63117843102995
O           -1.18006004585183       -0.48195296119121        0.94263704292681
O           -0.12467992809508        0.43236744016757       -1.75443961406955
C           -1.63343000612881        1.58018902616971       -0.05847233523449
C           -0.17639868965272        1.83314177176927        0.00130312341977
C            1.84774239447497        1.41761836111084       -1.11903999479984
C           -3.43865442301085        0.09176301746773        0.42945892906212
C           -4.32320432040668        0.85936815938713       -0.36311469387200
C           -2.48096609196287        2.44630188889280       -0.67072359206151
C           -3.84847239140363        2.09204615727148       -0.90111121454646
C            0.42888420835625        2.66187723413512        0.89067754412951
C            1.80962122197154        2.93867939529350        0.78764979980456
C            2.53470087642484        2.32026222802694       -0.26726320912812
H           -2.10278465550725        3.37857579666334       -1.05687024498419
H           -0.15735483232581        3.12934135223814        1.66633370369244
N           -2.09739982814519        0.42669758304759        0.48012774459154
N            0.52619451673985        1.19284588193572       -0.99799685515125
C           -4.69972267279536        2.89945123381168       -1.64621507616217
C           -6.00676029011881        2.51234355856526       -1.88580788997454
H           -6.66248914016332        3.14729250071896       -2.46083878590145
C           -6.46487870920375        1.29574187849605       -1.39524202518719
H           -7.47651499639866        0.98179948103054       -1.60254204576533
H           -4.32510665994214        3.83221991521021       -2.04022940381497
C            2.45842623120500        3.82407564550308        1.66232363857729
C            3.78632223225231        4.11799228408397        1.49330874167629
H            4.28396143928271        4.80236146927841        2.16278230421960
C            4.49789056257457        3.53619080995016        0.44003787238215
H            1.88734311713373        4.27343392029484        2.46032729576276
H            5.53844912424822        3.78583697942040        0.30015866815417
C            2.60485725070213        0.73727377844575       -2.23020272794354
C           -3.88637327089389       -1.00597398173000        1.33152495466643
C           -5.64499820858705        0.47416545791621       -0.65033723632427
H           -6.02103853773314       -0.47377094877203       -0.30499530348071
C            3.89536599479558        2.65577096339529       -0.42235425038835
H            4.47519997433727        2.23734591500448       -1.22687023384391
F           -3.87493603677474       -2.23409087568690        0.76375409476302
F           -5.14369072870752       -0.83119571095657        1.77591165178235
F           -3.13785827503938       -1.10264990285015        2.44211339714138
F            1.96306938626061       -0.19916400085517       -2.90590100686714
F            3.03642720498591        1.63850580388824       -3.14404842243701
F            3.72983024682319        0.13984954188907       -1.76920802202497
