63
 energy: -131.228011786644 gnorm: 0.000855335711 xtb: 6.5.1 (b24c23e)
Si          -0.22359366095824       -0.90500746401036        1.34460353352450
O           -0.46542600356833       -1.17620707147662       -0.20965823342677
C           -0.06008609982822       -2.08808883021949       -1.22462641844730
C            1.38662170811326       -2.47777873732002       -1.07436137906231
H           -0.19276753850160       -1.51947500791580       -2.15355216115062
C            1.81491182875394       -3.25385184226972       -0.00402251936470
C            2.31596920823666       -2.02841877152054       -2.00343215923842
C            3.15457820640617       -3.56788603248010        0.13695650807790
H            1.10751632322394       -3.60790531532879        0.73172446298656
C            3.65495021168493       -2.34917594643730       -1.86375851848206
H            1.98463935512146       -1.41762065093960       -2.82981594574962
C            4.07662887517653       -3.11651842353954       -0.79189713784954
H            3.47711644333913       -4.16589966792358        0.97598281915192
H            4.36994297056180       -1.99136045950209       -2.58842891861329
H            5.12212983338783       -3.36076795554004       -0.67859222791290
C           -0.99449135884318       -3.30571019859216       -1.22275257909407
C           -2.36461545947840       -2.90326963338860       -1.45942812964767
H           -0.66953916381284       -3.99430616950937       -2.00652723258169
H           -0.93397200420473       -3.81376217947496       -0.25735819054074
C           -3.48714935188536       -2.53394878106719       -1.64271331717074
H           -4.47772673656665       -2.23376511027292       -1.80861125435968
Cl           1.68704815192754       -0.40884231681049        1.77164478783692
Cl          -0.88341955061384       -2.34025644155077        2.56769157738129
O            0.68349416405390        0.83371679382208       -2.34252653175599
O           -1.09542485254189        0.46038007152378        1.62601397462562
C            0.14787140226888        1.88764674729046       -0.39341110338623
C           -1.24131927219030        1.45605339470025       -0.53873085399380
C           -3.22250284487474        0.84751430012702        0.66236420082332
C            2.35702328394775        1.87359968227482       -1.20878527651883
C            2.82909752325587        2.58628251886881       -0.07823792280693
C            0.54105126888630        2.60800918124140        0.70147381763757
C            1.88071703551434        2.97172896781898        0.90737378295923
C           -1.92374207640869        1.38289862688684       -1.70908876243245
C           -3.27555345044239        0.94262852444492       -1.75668146036486
C           -3.94288393878577        0.66819225062554       -0.52256213240606
H           -0.20215397969433        2.89440815105397        1.42979208573308
H           -1.43325634893220        1.65240791270986       -2.63014339055085
N            1.07103343735450        1.50920881879237       -1.36270673781383
N           -1.87574532652333        1.16701441264587        0.66136986300768
C            2.29486147306645        3.68629346471538        2.04616216246077
C            3.61306657098499        4.00913732733675        2.21453192137457
H            3.93606339647630        4.55506972370249        3.08740150167673
C            4.55436469301499        3.62575034658817        1.24962936157027
H            5.59320075423253        3.87976344813045        1.39412172741786
H            1.55310430250926        3.96322236328582        2.77932202956511
C           -3.95799959278990        0.79482355052809       -2.96436400230094
C           -5.27541288831568        0.39218452066261       -2.98072676119866
H           -5.80046997491793        0.28294980660627       -3.91698040741538
C           -5.93379939005128        0.11956290623483       -1.77729405885990
H           -3.43479616111992        0.99975288248016       -3.88599491583955
H           -6.96421777978201       -0.20377665924840       -1.79805021870551
C           -3.83028424524211        0.72281996516230        2.02195725249292
C            3.35745355854666        1.53039707886985       -2.28857610229675
C            4.18110279584226        2.93266582701404        0.12821819092090
H            4.93754535407174        2.65285468487177       -0.58448986273602
C           -5.29246812374463        0.24631000230947       -0.57097584217701
H           -5.81616243623881        0.00729587942748        0.33948177412386
F            4.34462953306826        0.73932346730233       -1.81908980817999
F            3.97083110791312        2.65168537950593       -2.73438284349314
F            2.89696636098931        0.92966220249494       -3.37603312902247
F           -3.10293288674482        1.31521237479112        2.97602359400783
F           -5.05098642669626        1.29258484541753        2.10150980568534
F           -4.00873220760675       -0.55733173592612        2.41656371187329
