63
 energy: -131.134135157599 gnorm: 0.000825234955 xtb: 6.5.1 (b24c23e)
Si           0.15593260984457       -1.05749588597133        0.63968168628816
O            2.14434325311490       -1.58365049455566       -0.06717173198826
C            2.94430825994878       -2.24761925382526        0.56709507529865
C            4.29212155300729       -2.53029923921814        0.11063619425840
H            2.65885590319211       -2.67088935676525        1.54087747762480
C            4.74085679260299       -2.02655097910150       -1.11527085241778
C            5.15079147177520       -3.29831595996189        0.90222099578696
C            6.02985505319930       -2.28435846281750       -1.53522143342588
H            4.05979676036903       -1.44006451305290       -1.71253768508648
C            6.43775985771164       -3.55346833121274        0.47190857409280
H            4.79775853740964       -3.68505335526531        1.84667460385431
C            6.87761017408558       -3.04619521440519       -0.74312976418675
H            6.37991235619401       -1.89361124590512       -2.47877959874385
H            7.10390811718944       -4.14640691350256        1.08051426797208
H            7.88617605581591       -3.24622394747935       -1.07363887908712
C           -1.65823311735013       -1.71430115977549       -2.86266408884211
C           -1.06250380831802       -2.04560324957966       -1.75975611809719
H           -1.09586775377883       -1.54176537195354       -3.76556155542798
H           -2.73030168383086       -1.62477765523741       -2.93868058590014
C           -0.45396501994134       -2.33820409213270       -0.65563638722790
H           -0.28438061316014       -3.37981724973892       -0.41971820599857
Cl           1.27566015463225        0.37929723765941        1.81822772024214
Cl           0.26130711224073       -2.49605248152883        2.19834711846245
O            0.18090628867775        0.12636833967426       -0.79444202036382
O           -1.37755536086558       -0.32843469308178        1.20523431628310
C           -1.08635177532507        1.93906012462075       -0.22750677802826
C           -2.24738254724461        1.04967006225275       -0.42837695237416
C           -3.37992228665073       -0.94058924813344        0.17003535689395
C            1.24710135264843        2.17574964536371       -0.50234023174293
C            1.21292187414125        3.48470891952699        0.03190254888787
C           -1.20735829141920        3.23083549713098        0.19281381102781
C           -0.05391090376250        4.03346764555647        0.38680675004467
C           -3.19557963760449        1.34517877990540       -1.36512374562248
C           -4.24274783547615        0.42880008409822       -1.65293159438400
C           -4.31258871986768       -0.76738657094141       -0.87968656708592
H           -2.18244993437656        3.62551368476638        0.42911049336481
H           -3.10927191279444        2.25409758954898       -1.93801073366162
N            0.12504257384226        1.42346422159174       -0.55315744313465
N           -2.34559281490806       -0.06837436484549        0.32805140194769
C           -0.12800413913752        5.32688396092525        0.91270136506196
C            1.01654102730732        6.06848880603477        1.10451779582688
H            0.95438346204361        7.06504151018444        1.51350839985570
C            2.26048041738671        5.52607912072251        0.78176479021521
H            3.15452737686642        6.10549351450305        0.95338061568743
H           -1.09514735982135        5.72887014178058        1.17387584158026
C           -5.16404998010927        0.65166267071830       -2.67697999704885
C           -6.13273128761281       -0.28938007464982       -2.96383621710486
H           -6.84221705374419       -0.11189596256213       -3.75697438344191
C           -6.18089786430643       -1.47695334367810       -2.23863909496918
H           -5.09995793409309        1.56607747055291       -3.24698453421312
H           -6.92205441896330       -2.22221057917638       -2.48300880251724
C           -3.55731610687736       -2.05768364658789        1.15759440370967
C            2.51211921283591        1.63898800514329       -1.11150215133733
C            2.36707191290438        4.26061271021288        0.25414570235680
H            3.34177779023379        3.85898244801994        0.03544857299536
C           -5.29202862808748       -1.72201393779796       -1.21480619169980
H           -5.34127607004993       -2.66004895147056       -0.68912152965184
F            3.47437991744352        1.34131507240822       -0.22632908143407
F            3.06246424934396        2.58121572308176       -1.92450169165124
F            2.36299179107297        0.57676118833688       -1.89578991080478
F           -2.90909783978075       -1.91820550138735        2.30461376731754
F           -4.86115438154301       -2.17287946461584        1.51133387133402
F           -3.22011618827277       -3.26025042239540        0.65130702042546
