63
 energy: -131.215960537601 gnorm: 0.000350349324 xtb: 6.5.1 (b24c23e)
Si           0.61493304525476       -0.88259588631504        0.67351679565064
O            2.02459044315449       -1.39710700167750        0.10277842798307
C            2.72420919484008       -2.62132693889226        0.21387001667012
C            3.96630557195278       -2.53920060878989       -0.63684461018761
H            2.06800898102731       -3.42437199446904       -0.14881992485780
C            4.81337142926916       -1.44488655734426       -0.51943765377034
C            4.28783539930754       -3.55864376029993       -1.52174744565307
C            5.96302120498211       -1.36904236748725       -1.28437693224828
H            4.56059817510699       -0.64996978646287        0.16361044908340
C            5.44396582253207       -3.48568881368209       -2.27929289207016
H            3.63099560629882       -4.41161047941133       -1.61753943320265
C            6.28227130324229       -2.39024941336916       -2.16334117543370
H            6.61250097652250       -0.51106965595420       -1.19290793133766
H            5.68779590400166       -4.28410713347627       -2.96474648586161
H            7.18159240403734       -2.33195411545350       -2.75863383513254
C            3.10464979108927       -2.90939047264450        1.67842195945732
C            1.94668511107912       -3.28644479697737        2.45948535123094
H            3.83846161164494       -3.71951928013122        1.69557791533996
H            3.55832281419802       -2.01099836193689        2.10367102539144
C            0.96239919258015       -3.59855752668216        3.06448505329106
H            0.10519288674006       -3.86195448217880        3.60842719987821
Cl           0.87968102881582       -0.04212636061031        2.46184373948350
Cl          -0.73331974284304       -2.34436434008340        0.39062620659975
O            0.19967707689723        0.22288516472617       -0.50754878977552
O           -1.78794448681540        0.25013236590843        1.45540042471844
C           -1.23417537588491        2.05248344310127       -0.28007617444534
C           -2.34178674014142        1.10996402143554       -0.54646324130661
C           -3.58534037064666       -0.66736781363036        0.36379042496921
C            1.12388525932931        2.38890563703484       -0.11525407143702
C            0.92971255282237        3.67997758286127        0.42530417636554
C           -1.46755087368212        3.34597639472657        0.06059560849321
C           -0.39857095203747        4.19423245436471        0.49082040162287
C           -3.12133613614390        1.14935968630108       -1.65968441823934
C           -4.19845082215162        0.24988363718101       -1.81272188556957
C           -4.44203763140360       -0.68325925190190       -0.76656956321775
H           -2.47939621016831        3.71649726309050        0.08135487245339
H           -2.90912736517488        1.87320270806978       -2.43095602090102
N            0.03476626662812        1.57680260592706       -0.36868835774295
N           -2.56902477778150        0.20600731009203        0.46635776097086
C           -0.62490372339899        5.47566044249718        0.97985438580118
C            0.42966380361598        6.25838236331447        1.41606001320590
H            0.24648251197199        7.25385061159104        1.78923377196905
C            1.72388700730538        5.75199315611117        1.38251221996856
H            2.54347921238956        6.35525353327265        1.74216359770030
H           -1.63649776761516        5.85108047533281        1.01777643781883
C           -5.02282757613161        0.26295807603202       -2.94943262605104
C           -6.06884759337378       -0.61640449793398       -3.05749092040885
H           -6.70216225366578       -0.60642989274695       -3.93104595409824
C           -6.31859887516885       -1.53067130037591       -2.02890679441141
H           -4.81489081756778        0.97771448862196       -3.73111642910755
H           -7.14630486494909       -2.21708406846805       -2.11881736325140
C           -3.86129746712605       -1.62336905718288        1.49940269459613
C            2.46556096146428        1.90598094511521       -0.54744608417355
C            1.98025741200724        4.48578551557631        0.90167061333194
H            2.98971324855097        4.11071134844355        0.90909512915054
C           -5.52933763108969       -1.57049183128239       -0.90723002545202
H           -5.75374015332337       -2.28881920397568       -0.13792187553282
F            3.22183324744786        1.40186296658071        0.45465967244537
F            3.21200219035466        2.90365124544334       -1.07235442036245
F            2.42448851806707        0.97272005770345       -1.50198125187814
F           -3.04067344178988       -1.58039613294340        2.53493391142999
F           -5.10107128097096       -1.39980365266515        2.00586155091499
F           -3.87479323549468       -2.90407366300572        1.08213277912287
