63
 energy: -131.219918553422 gnorm: 0.000431307538 xtb: 6.5.1 (b24c23e)
Si           0.54186736761552       -1.87062009567732        0.27550207656790
O           -1.03465296845314       -1.56069454916913        0.37252101855809
C           -2.15154898067705       -2.36934426129731        0.01147745141400
C           -3.08798826846161       -1.48240873378926       -0.77879689439092
H           -1.79222491950198       -3.17376947160257       -0.64642665376778
C           -2.56107712014741       -0.83579303614295       -1.89340482098722
C           -4.41954580181030       -1.27508416438874       -0.44994310431586
C           -3.34834071162467       -0.00224256837832       -2.66436259485503
H           -1.52390838500975       -0.99466180810793       -2.15144285382061
C           -5.20811262148600       -0.44173213844557       -1.22620986435737
H           -4.85511226121387       -1.75485319753075        0.41101032505743
C           -4.67853636198977        0.19460304748493       -2.33374606224241
H           -2.92661313353287        0.48751421041846       -3.52963761931065
H           -6.24394254289452       -0.29164280579338       -0.96098473823421
H           -5.29814429320563        0.83966786302461       -2.93865807412265
C           -2.74475181971437       -3.01070920554744        1.26954570415655
C           -1.75726604255197       -3.86271924204063        1.90023864950701
H           -3.61273393918440       -3.61082706154896        0.98686614748318
H           -3.05016517022448       -2.23680167537425        1.97548520482044
C           -0.90280675143170       -4.54146088020708        2.39021121365460
H           -0.16947489968628       -5.14326741584653        2.83692945867464
Cl           1.56077731953108       -1.97113850071394        1.97338404141047
Cl           0.74406218727162       -3.58120145941234       -0.78024780500239
O            1.11563801392129       -0.77302310211002       -0.85484679906902
O            0.24260133589349        0.50646331305535        1.44352206036482
C            1.55251071803561        1.49512692280491       -0.50559695522543
C            0.08983604215832        1.69487479231321       -0.45761819271521
C           -1.80723775348582        1.38485489017682        0.89566247650757
C            3.37434933910246       -0.03359618756849       -0.73337386503100
C            4.29187542340120        0.94962262082606       -0.29847782864006
C            2.41300223520152        2.52104190568642       -0.27013644366534
C            3.81147038701609        2.27830681385372       -0.09888924719496
C           -0.62051714954975        2.40499238158646       -1.37507633516026
C           -2.00161498167174        2.63307310244849       -1.19093424110533
C           -2.61047867965867        2.12314014837748       -0.01068894463024
H            2.02630572280378        3.51679481839830       -0.12678092125236
H           -0.11946410120499        2.79941761192420       -2.24525259225685
N            2.02062443703652        0.24436493112700       -0.73517082405836
N           -0.50039962213330        1.16874209619378        0.66740731787283
C            4.69073119667264        3.28712725548206        0.27970651120886
C            6.03143910158757        3.01261283201484        0.48200016577105
H            6.70830140418858        3.80165743040409        0.76977031235281
C            6.49833801325870        1.71211532529992        0.32933144279591
H            7.53868321292067        1.49226479131398        0.51417916437003
H            4.31039825476678        4.28796516216023        0.41864378975057
C           -2.76423184658642        3.36305816589050       -2.11573985546317
C           -4.09565098338381        3.59725980004944       -1.88618873901513
H           -4.68096679083137        4.15961796880198       -2.59728518682687
C           -4.69623890497677        3.11050970436705       -0.72208351037544
H           -2.28024984858128        3.73756776175489       -3.00502546280773
H           -5.74249992791975        3.30450630127971       -0.54322382317200
C           -2.41311534498547        0.90913522989590        2.18974464231108
C            3.78849369723803       -1.33890846272236       -1.32595549870405
C            5.65233646237044        0.69126796361096       -0.04858952275557
H            6.03873790611073       -0.30988674198040       -0.13311210266373
C           -3.97810373486233        2.38993203234326        0.19930569273595
H           -4.47680210005172        2.03525053303133        1.08440304404670
F            3.87148362690780       -2.35220270602742       -0.43746253143565
F            4.99803994013038       -1.27640770651872       -1.91157869345921
F            2.95879366829518       -1.75281103002567       -2.29547834722871
F           -1.64012556336054        0.19991651499127        2.99307520493582
F           -2.83973934388131        1.96814510165288        2.92275378324913
F           -3.51727734350760        0.15708286389630        1.99082264976215
