63
 energy: -131.219914308936 gnorm: 0.000317794653 xtb: 6.5.1 (b24c23e)
Si          -0.54485864804868        1.87175427501970        0.26765722139142
O            1.03090909028440        1.56038142111407        0.36576812721532
C            2.14997416694485        2.36992645798563        0.01369856281722
C            3.08980593737518        1.48516564822190       -0.77507739966463
H            1.79431477165753        3.17704066872698       -0.64303020168305
C            2.56571809841033        0.83580120539776       -1.88947826276783
C            4.42170932343006        1.28223194053088       -0.44501844685322
C            3.35583852606018        0.00324122417437       -2.65849822905058
H            1.52828573784671        0.99134701234297       -2.14845650961515
C            5.21316354180392        0.44974893563631       -1.21936019592620
H            4.85542524259720        1.76451108368413        0.41548412567583
C            4.68621615530187       -0.18979796251280       -2.32626310677708
H            2.93623154836462       -0.48899817928660       -3.52338328780544
H            6.24921242894635        0.30308824560476       -0.95306095468103
H            5.30796569449180       -0.83420509911624       -2.92961888602281
C            2.73690693129089        3.00615612653267        1.27742286810015
C            1.74413721494375        3.85157413531819        1.90869552655825
H            3.04185688441738        2.22921533198620        1.98022356883485
H            3.60424750713500        3.61038954692228        1.00154505442612
C            0.88485900331394        4.52364696289539        2.39948352665025
H            0.14613278368232        5.11981674212738        2.84498320155964
Cl          -1.56885930945265        1.96536186574920        1.96272897546014
Cl          -0.74709616384229        3.58275490880128       -0.78607746615694
O           -1.11226198208030        0.76942936948474       -0.86120246024542
O           -0.23911208554553       -0.51087141907864        1.44503920282758
C           -1.55227634142347       -1.49613786108710       -0.50399557083925
C           -0.08944733597761       -1.69653392889657       -0.45796418837344
C            1.80995185198739       -1.38808014421767        0.89232069835651
C           -3.37263756897979        0.03280128398898       -0.74164411796896
C           -4.29109562570296       -0.94672313824662       -0.29998353770664
C           -2.41348257357877       -2.51962282157740       -0.26138896189602
C           -3.81150357764051       -2.27398043394180       -0.08963345522344
C            0.61932804229037       -2.40495322391176       -1.37777582832753
C            2.00075164657565       -2.63321837164525       -1.19646426569332
C            2.61162895266913       -2.12497818061266       -0.01655897866634
H           -2.02785867650393       -3.51506927584822       -0.11334168142872
H            0.11680682009150       -2.79778822207476       -2.24784115573954
N           -2.01917260180375       -0.24616804663682       -0.73948700468244
N            0.50251243031212       -1.17169722542759        0.66698419564446
C           -4.69102601298976       -3.27864089141053        0.29924642494087
C           -6.03135853836886       -3.00133751181163        0.50056944678857
H           -6.70812258638504       -3.78699063119100        0.79752818008532
C           -6.49785848218464       -1.70232442166706        0.33491565988854
H           -7.53803685031107       -1.48016662336783        0.51788793785379
H           -4.31119321329766       -4.27839568800204        0.44709786053911
C            2.76165779366441       -3.36174493093094       -2.12380435487138
C            4.09347964770918       -3.59619429604838       -1.89709451831537
H            4.67754119575699       -4.15742380890239       -2.61007958500848
C            4.69616246492392       -3.11106751538878       -0.73338461990066
H            2.27590735133866       -3.73499809865364       -3.01265940267775
H            5.74285361529657       -3.30497877472036       -0.55691799912656
C            2.41826951696554       -0.91441049247738        2.18598622883764
C           -3.78620622917793        1.33459459433205       -1.34174418488551
C           -5.65149739780881       -0.68551889506297       -0.05328061453120
H           -6.03753400547709        0.31504746713761       -0.14770993240779
C            3.97972581101038       -2.39195630875565        0.19042484699723
H            4.48019984356117       -2.03843591017648        1.07497896695299
F           -3.87733356055205        2.35132650807962       -0.45755415895251
F           -4.99233436615462        1.26655291317416       -1.93416687351758
F           -2.95200360230760        1.74734888596715       -2.30781439402966
F            1.64699484244380       -0.20530916416995        2.99122300695952
F            2.84544999758137       -1.97431441835300        2.91717003002636
F            3.52261192310464       -0.16259584573735        1.98626534662894
