63
 energy: -131.228580143610 gnorm: 0.000563762704 xtb: 6.5.1 (b24c23e)
Si          -0.11759799132415        1.20927253918870        1.24243266853102
O            0.68093633630801        1.07399325255649       -0.13283017552505
C            0.74518819921478        1.66288234138899       -1.42229136033187
C            1.94800128417293        1.08644044809365       -2.12466451317804
H           -0.16714639515991        1.38008883564305       -1.96038136224871
C            3.20124711784537        1.15316538983369       -1.52911917482444
C            1.81363383312294        0.50564327446713       -3.37733729603844
C            4.31379138321602        0.67338477426659       -2.19528367174596
H            3.30435612783483        1.57542586115920       -0.54018067101644
C            2.92947424752571        0.02794612019182       -4.04208864672644
H            0.83274883789944        0.42306468725060       -3.81978150810029
C            4.18096291547785        0.12067156681046       -3.45760919619557
H            5.28586315370224        0.73426650621548       -1.72933951272380
H            2.82125943410669       -0.41685233867308       -5.02020492607940
H            5.05202587930477       -0.24339306379961       -3.98184048202492
C            0.85495207333742        3.19260000807501       -1.34393197845419
C           -0.36660924620790        3.79641208716304       -0.85770897143864
H            1.07406872245733        3.56996136313841       -2.34613343183860
H            1.68225751657866        3.45769206502082       -0.68016388279522
C           -1.38924118848475        4.26624245464042       -0.45127635936136
H           -2.27775324468984        4.69696812077641       -0.09807013725515
Cl           0.60708114318843        2.59995605024544        2.47177697515604
Cl          -2.11648339383419        1.39629859482891        1.03922030699644
O           -1.09990989953202       -0.79161760587225       -2.06646732604861
O            0.12587886604739       -0.26265844401484        1.94538435247521
C           -1.27069798820953       -1.65603287678464        0.03304352647121
C            0.18969641702953       -1.74750028905769        0.08493326527795
C            2.12025937569379       -1.45093121768753        1.46215826442655
C           -3.17453100120285       -0.92965083175366       -1.14538976601303
C           -4.03325233346851       -1.33388655224980       -0.09326381815503
C           -2.04269152821269       -2.02036178356640        1.09874040286596
C           -3.44174735133532       -1.89433122335855        1.07133735571967
C            0.96929769156757       -2.19114610028851       -0.93074091537149
C            2.38843392767884       -2.21067647408244       -0.82495110086790
C            2.97633742565372       -1.79969744587944        0.41081638657637
H           -1.56015763284243       -2.41984844572412        1.97766090577207
H            0.51270638097629       -2.52240229106649       -1.84884387255370
N           -1.84391773864549       -1.11583484659828       -1.11284508068762
N            0.74635044157272       -1.37618079768942        1.29999801538381
C           -4.25044057405352       -2.29562103367188        2.14981846522316
C           -5.60970930873268       -2.15921695970753        2.08015346517220
H           -6.23351241934779       -2.46476344796855        2.90588758714909
C           -6.19981541923153       -1.62435985175608        0.92695165414475
H           -7.27377329312983       -1.53127750006437        0.87706935119003
H           -3.77485953846866       -2.71012011971038        3.02544355704179
C            3.20022570091793       -2.62207371742016       -1.88001933248819
C            4.57166464795647       -2.62936410963480       -1.74676469265937
H            5.19589742841403       -2.95884228117785       -2.56238428407987
C            5.15520588409267       -2.20030314833662       -0.55257212004265
H            2.73553521513822       -2.93071029818289       -2.80387799128840
H            6.23099189247755       -2.19245653015532       -0.46047308212549
C            2.61389601942681       -1.13685541413173        2.83663883760297
C           -3.78877863216167       -0.24315211191564       -2.34461688463300
C           -5.43862842730379       -1.21891490530929       -0.13763821728172
H           -5.93086162785008       -0.82023319451246       -1.00804259310497
C            4.38695837017407       -1.78827730966247        0.50672066975126
H            4.86384598596932       -1.44888809374648        1.41100092127306
F           -4.56143745260848        0.79425846131927       -1.96211598193303
F           -4.60955743405200       -1.08147222676594       -3.01834587784050
F           -2.95435101133540        0.25427701760821       -3.24619712744154
F            1.65799983142000       -1.18412332580683        3.76923265901475
F            3.56286071148306       -2.00044255932122        3.25721214810213
F            3.18274065244363        0.08708994721624        2.93126758120540
