69
 energy: -137.561965709329 gnorm: 0.000482641768 xtb: 6.5.1 (b24c23e)
Si          -0.08498716945442       -1.69775058265626       -1.14279267173317
O           -1.60812085738740       -1.23320493602782       -1.26545146860283
C           -2.57123839257756       -0.77078719633539       -0.32712431362824
C           -3.21533472390286       -1.92905374168534        0.38753471106492
H           -2.07899142179119       -0.13487466408949        0.41432023277378
C           -3.51010410618863       -3.10012055293335       -0.29704987266140
C           -3.52684146641188       -1.82312780256815        1.73622067983244
C           -4.11219364193781       -4.15690272233808        0.36179056149519
H           -3.25098734080127       -3.18305840696044       -1.34231762041850
C           -4.13723384596193       -2.87877917273161        2.38992641903721
H           -3.28047844237570       -0.91739851155588        2.27069693168754
C           -4.43092806569727       -4.04580352446515        1.70457816551214
H           -4.33304606909519       -5.06786407008706       -0.17452423044090
H           -4.37739987910954       -2.79262155789375        3.43918764855242
H           -4.90233057583661       -4.87069626508339        2.21819516010373
C           -3.61828406232302        0.03607812553666       -1.11285341472720
C           -2.99295266175468        1.10460753902214       -1.86161906394261
H           -4.35080239687725        0.44783650002009       -0.41512618828472
H           -4.12752951862406       -0.63456925457924       -1.80974539813141
C           -2.43044817564424        1.96107665822221       -2.47930954527149
H           -1.97220841690927        2.71740274907028       -3.04291400705777
Cl           0.37348022160596       -2.55314240007731        0.62178711803669
Cl           0.13608532672802       -2.87260359924432       -2.73296120469300
O            0.90544573353507       -0.39556463001370       -1.36933064935874
O           -0.66753202645437        0.92388669029842        1.55278078280205
C            1.71345748633299        0.81441409011084        0.48632702597340
C            0.78484670650477        1.90330948423942        0.11937612065330
C           -1.30519450717814        2.88152704055685        0.57702278327740
C            3.03349930702572       -0.95229635096072       -0.40370917158777
C            3.52727185125546       -1.26835787274873        0.86960001128112
C            2.23262947849851        0.64174464503841        1.72956311436154
C            3.08369637089214       -0.49286796411376        1.98326555179490
C            1.08349349646278        2.83280715447672       -0.84043254838738
C            0.11704125746528        3.82443125705135       -1.16719937489700
C           -1.08630243955331        3.87185941419832       -0.41094591137421
N            2.04113323455062       -0.01246667325879       -0.57582259813375
N           -0.42913021728106        1.88662022273751        0.78316817047640
C            3.50158757653309       -0.85058893039671        3.26466847750335
C            4.36406505147155       -1.90883686050733        3.45902166964917
H            4.67570850887192       -2.17390658022494        4.45746025473296
C            4.83980524912046       -2.63462785573953        2.36631034125955
H            5.52523228878888       -3.45303839333171        2.52573807132427
H            3.13601566064184       -0.30299112371978        4.11823455344272
C            0.30725366673609        4.75500768229733       -2.20623464710945
C           -0.63620223912863        5.70992353294133       -2.47617438631195
H           -0.48301279867443        6.41181468707995       -3.28156447927770
C           -1.80473105818737        5.77779619207854       -1.70912747080329
H            1.19926786506476        4.70173335762113       -2.80851088512248
H           -2.54061010457489        6.53704778482142       -1.92373262155367
C           -2.56841361317166        2.93722781650150        1.40029281404558
C            3.55735649096823       -1.58266128766673       -1.64961506345929
C            4.43423749957844       -2.32828817646025        1.09301870084758
H            4.78629415589666       -2.91565222239149        0.26147220601758
C           -2.02954567783260        4.88176790855481       -0.69888248080460
H           -2.94623323234531        4.94879468326387       -0.13947143314988
F            3.27059879411063       -2.89496752039046       -1.76734769783758
F            4.90865396156761       -1.51093940272255       -1.72302392261641
F            3.10927502150341       -0.98859079177956       -2.76034915797874
F           -2.70556087937956        2.01550953244693        2.34449864390036
F           -2.65945447668285        4.12512683769574        2.04303045666537
F           -3.68041268667714        2.84938345280287        0.64128203834243
C            1.93347538513849        1.62110112379173        2.81927942140760
H            1.10934841393276        1.24310333403666        3.42484036775048
H            2.80156242652313        1.76899479185554        3.45596084187848
H            1.63870920371357        2.58426806205074        2.40849697000908
C            2.41692597352187        2.80218186607414       -1.51508837725993
H            2.33152681879609        2.29132083847563       -2.47386732202085
H            2.78736993949391        3.80894004277567       -1.68851004127958
H            3.14304676490012        2.26408449998181       -0.91272577755852
