69
 energy: -137.564817196393 gnorm: 0.000611560770 xtb: 6.5.1 (b24c23e)
Si           0.65338764154086       -1.74316839525355       -0.79646472257778
O           -0.84414555493379       -1.34135202672913       -0.38404757849404
C           -1.89376181645394       -2.07566318657267        0.22213342094304
C           -3.21792298621641       -1.53316058858356       -0.27078744762294
H           -1.81726835165319       -3.12298563964289       -0.10795520951379
C           -3.26444684370648       -0.67139816704543       -1.35793508116219
C           -4.41104697091624       -1.94591958685355        0.31057101171172
C           -4.47693318137162       -0.21040986649320       -1.83945332831805
H           -2.34563713513515       -0.37056848705772       -1.83693822092927
C           -5.62098845431979       -1.47247037597147       -0.16172528284441
H           -4.40140740214459       -2.65091688708232        1.12819937304360
C           -5.65836245137480       -0.59909086666177       -1.23521235743427
H           -4.49410439748288        0.44998390609462       -2.69381548081929
H           -6.53928014674500       -1.79431281046570        0.30602899383384
H           -6.60454432170601       -0.23483812326636       -1.60652261363680
C           -1.71153171749070       -2.01928739683190        1.75224069004339
C           -0.92967039400017       -3.14448865561400        2.21597371674732
H           -2.67758729684843       -2.00764535511315        2.25809557494529
H           -1.17967972118702       -1.09607052423897        2.00387321567165
C           -0.27862425121034       -4.09429255967485        2.54082499177611
H            0.29665062197073       -4.91173851988011        2.85792792450606
Cl           1.92847612948031       -1.91099448390160        0.74327909359542
Cl           0.64452541853766       -3.34566643060101       -1.99014060142043
O            1.08794144016873       -0.46406067925861       -1.73725151399265
O           -0.12719624284788        0.78316990490110        1.62479549075025
C            1.53872418670117        1.38273685433805       -0.31315890851671
C            0.11098723807717        1.73973535497967       -0.41919355478044
C           -1.94888793245968        1.79555681664846        0.71534395731467
C            3.33200841561601        0.22650726039915       -1.38175046761828
C            4.19478992356426        0.50168234042264       -0.31199466602877
C            2.36495032058255        1.83326371848678        0.66953799708419
C            3.70624263787390        1.31260924723080        0.75714053506855
C           -0.42480761528326        2.31127302004111       -1.54433977207256
C           -1.82137087478114        2.57930099964494       -1.59029159719529
C           -2.59135917987497        2.35030140567084       -0.41722698497708
N            1.99388486940181        0.56217333295607       -1.32869902447970
N           -0.66123526933079        1.41557371702204        0.68531418606276
C            4.53475222146195        1.55829747287044        1.85118552478724
C            5.81891985310138        1.05600223619399        1.89663764107105
H            6.44555221333036        1.25544184132709        2.75206341379951
C            6.30724057375744        0.28863408193967        0.83974823109356
H            7.31352667787971       -0.09980075673480        0.88036201520954
H            4.16448079835020        2.13383252352068        2.68384821816892
C           -2.46434529321546        3.07254769943889       -2.74137257352251
C           -3.80220646931329        3.36208636945415       -2.72996963420922
H           -4.28259760547489        3.74051232506467       -3.61936415231712
C           -4.55398530162218        3.16059871480411       -1.56726267476103
H           -1.89837142903884        3.20949079256172       -3.64804299218760
H           -5.60849715171043        3.38855470909581       -1.56653814017297
C           -2.73807740027274        1.61991937926927        1.98896245199878
C            3.74606251857256       -0.48769596102704       -2.62234033838604
C            5.51678264376945        0.00937672398812       -0.24602070720085
H            5.89762251391219       -0.61115337801150       -1.03965598428099
C           -3.96870811212178        2.65760247637304       -0.43708250567030
H           -4.58048644277554        2.48219611986456        0.43058137577700
F            3.88092872473972       -1.82428211503962       -2.46552535466600
F            4.93568418758050       -0.06424837754033       -3.09723097209570
F            2.87986643720533       -0.31307482359335       -3.62952418566351
F           -2.05489512891025        1.23932873348237        3.06047669497733
F           -3.32379853370362        2.78779787468766        2.34368252013495
F           -3.74716316770843        0.73395388584190        1.85545336947450
C            0.46573631374007        2.66083765914894       -2.69323903640187
H            0.46876552990804        1.84654100972263       -3.41774530882456
H            0.12697201203226        3.56673795144428       -3.18742175862250
H            1.48794738640072        2.81093859835953       -2.35781393121293
C            1.88995502634565        2.85221678329522        1.65523254332257
H            1.56448715821108        2.35032716832384        2.56702598822506
H            2.68639406322636        3.55016826187206        1.89988192851975
H            1.04819884831840        3.41617475395440        1.25915657496883
