69
 energy: -137.567666682492 gnorm: 0.000922134002 xtb: 6.5.1 (b24c23e)
Si           0.21354106676453        0.92357212743713        1.31196801785830
O            0.79812762331894        1.32908223984281       -0.11328926624063
C            0.51318759509102        2.28126666195635       -1.13650742040509
C           -0.77409261985676        3.01141531005641       -0.86540309560656
H            0.41128563286677        1.67893913982525       -2.04724171316414
C           -0.88570131335460        3.89309512776945        0.20327400828027
C           -1.88488037209560        2.76214984487887       -1.66035900585942
C           -2.09487847260126        4.50709036943134        0.47632303746171
H           -0.03415159646949        4.09363341398112        0.83624162809603
C           -3.09281254275591        3.37908170498155       -1.38718151879470
H           -1.79641473564768        2.07392130327824       -2.48718810454636
C           -3.20034971158891        4.24947605803815       -0.31611732291243
H           -2.17226426949329        5.18472829905257        1.31347192176034
H           -3.95307084575930        3.16936319412404       -2.00383631764971
H           -4.14495963470096        4.72425043168206       -0.09669516666300
C            1.71051680388373        3.23192748213526       -1.26671268616368
C            2.87662997232935        2.53189684700672       -1.76169435858907
H            1.44384177333242        4.03646182390046       -1.95695123278707
H            1.94009447441088        3.66395324960546       -0.28963474263601
C            3.82195345936580        1.93204361044817       -2.18180584906442
H            4.66440559707691        1.41775470061248       -2.53476876105627
Cl          -1.79699002017038        0.70620857669407        1.37117376362104
Cl           0.81435667684793        2.07630846302224        2.82825411653126
O           -0.69894781191550       -0.41250492140943       -2.07147974275349
O            0.83024624538597       -0.57983642637062        1.58043444056028
C           -0.48812263425302       -1.91731779097156       -0.37921332823400
C            0.96888199105436       -1.72640919607883       -0.50432348643686
C            2.95861568999882       -1.14853064703281        0.69413139397206
C           -2.60189210792285       -1.30299346233175       -1.20430895995657
C           -3.24738859771903       -2.00604615039396       -0.15903258922087
C           -1.03770697658913       -2.71224863499476        0.59523252367257
C           -2.44731218192724       -2.71856489570575        0.77445706951736
C            1.67680871087342       -1.94567817963294       -1.64631970499506
C            3.07368138492750       -1.58815025540242       -1.69422624912634
C            3.71591725998377       -1.17950203451182       -0.48604243726938
N           -1.26626423807794       -1.17504301802587       -1.25578983789195
N            1.59076254845070       -1.34182262895818        0.66378999547579
C           -3.07387662319866       -3.38362766079925        1.84493173724559
C           -4.43483913059428       -3.35706539021137        1.98677933978642
H           -4.90394598535125       -3.86265562466495        2.81676139250258
C           -5.22348055091155       -2.66507479617903        1.06120694556028
H           -6.29525837075153       -2.64349035203472        1.18395556152186
H           -2.47113507300028       -3.89813709665056        2.57489221379698
C            3.81343478241313       -1.62908289429718       -2.87387040477131
C            5.15840489354411       -1.31263840560461       -2.88335589701248
H            5.71682003344799       -1.35835800721511       -3.80599973778723
C            5.79020391321204       -0.92640732221888       -1.70302530393915
H            3.33158519476592       -1.90113306352677       -3.79868291506672
H            6.84001890878601       -0.67281506281583       -1.71431270209601
C            3.54227059831646       -0.93735766279301        2.04846761806397
C           -3.44361428728222       -0.65308495947184       -2.27347631403290
C           -4.64823612731700       -2.00294774015513        0.01047482773882
H           -5.27947418825210       -1.45869140881556       -0.67051560493436
C            5.08740359387933       -0.84575931444551       -0.52570045622783
H            5.58456419507198       -0.50866256071002        0.36796780525268
F           -4.19932875575314        0.35743482881429       -1.80017656021690
F           -4.31815408750929       -1.54965358823279       -2.78943154451772
F           -2.79214108291688       -0.16953480098612       -3.32418674274009
F            2.75341861802189       -1.39015380025587        3.03469446896276
F            4.71700017798827       -1.57791502735614        2.21933325798943
F            3.79934688505098        0.35915697837683        2.33728303586498
C           -0.15309575527275       -3.55658715887110        1.45551376589889
H            0.04271831565972       -3.04768879220732        2.39920896134950
H           -0.62462162534534       -4.51246714939201        1.66697164911406
H            0.80054483761795       -3.74074446789242        0.96870762430966
C            1.01935220390881       -2.56214686897226       -2.83944417384294
H            0.75124395769916       -1.78374862531617       -3.55385947109769
H            1.68894572714890       -3.27048117109808       -3.32108190134190
H            0.11072898387587       -3.08806577191244       -2.55552349410179
