69
 energy: -137.474954503737 gnorm: 0.000593967690 xtb: 6.5.1 (b24c23e)
Si          -0.33079524765769       -1.08529356794784       -0.66494595401527
O           -2.33515883781841       -1.50684190041413        0.15722383972660
C           -3.15862000144662       -2.22275876754763       -0.38095937418852
C           -4.51112765400227       -2.40689827040287        0.11514670222207
H           -2.89840560554851       -2.76676230153848       -1.30059737309308
C           -4.93778272431297       -1.72995506738259        1.26257204224923
C           -5.39511438557887       -3.25189378889012       -0.56120158102957
C           -6.23031090137229       -1.89231593785322        1.71805306385229
H           -4.23693132161373       -1.08726861165507        1.77244054397264
C           -6.68512841403280       -3.41204495716811       -0.09516242924150
H           -5.05933329977048       -3.77308912374146       -1.44534853645509
C           -7.10337793945435       -2.73165288789867        1.04024230007115
H           -6.56333232787639       -1.36649614140617        2.60030924788100
H           -7.37068686268017       -4.06487736677331       -0.61458776456978
H           -8.11484130769556       -2.85680381541544        1.39782518952227
C            1.49768877397225       -1.91385150197011        2.80647736982019
C            0.88638995443790       -2.18024201919526        1.69477409552619
H            0.94462016407500       -1.75047568007129        3.71677745966225
H            2.57226567371277       -1.86394413807054        2.87854982365040
C            0.26464734840889       -2.41719043914762        0.58470490822696
H            0.05815167909129       -3.44520052745197        0.31943962418410
Cl          -1.46137267658915        0.39658134858820       -1.76166138858796
Cl          -0.61105236769017       -2.51284204181659       -2.22084433632659
O           -0.20746269249279        0.07724188082459        0.78158688165292
O            1.19252295694239       -0.43144809050534       -1.33134838365631
C            1.12371525424361        1.79392213794802        0.08481445096050
C            2.22001641294874        0.81937710223848        0.31034877962060
C            3.18231167878125       -1.22732335694970       -0.40223522085931
C           -1.16626705559247        2.18304373733413        0.52055673661741
C           -1.09609507005225        3.44978829634312       -0.09945681473438
C            1.29337499875444        3.02292559693219       -0.49216783883145
C            0.15252930215401        3.87743260861469       -0.63795422850255
C            3.14935026402973        0.97982166050475        1.30403267758134
C            4.12315743872264       -0.05332056133249        1.51951948791998
C            4.11811909284851       -1.18681234672788        0.65394245200068
N           -0.08963331721653        1.37074469537680        0.52698441845773
N            2.22710025435031       -0.26553351095286       -0.50273284767596
C            0.22532779595408        5.11862572153470       -1.27951319988384
C           -0.88952408065255        5.91914417005836       -1.40030072367959
H           -0.81639705650933        6.87246014780199       -1.90061202798702
C           -2.11349850238333        5.49521788238208       -0.88666803668905
H           -2.98667953961204        6.11928599440845       -0.99839012390016
H            1.16373048408336        5.45197281252213       -1.69117272177869
C            5.05699502195431        0.00485351031207        2.55647446970694
C            5.95340085080152       -1.02539617769276        2.76425448951589
H            6.66755143789052       -0.96251029136532        3.57064250908459
C            5.92324270138375       -2.14913838155385        1.94512629058833
H            5.07739410860443        0.86048828509826        3.21098933721827
H            6.60666062021866       -2.96444573355900        2.12538580213654
C            3.25856780716083       -2.29285422004775       -1.45533354130715
C           -2.40751640684741        1.74955852819460        1.24557936379896
C           -2.22215122859702        4.28514233084859       -0.24594856506321
H           -3.18249060107154        3.96782689179398        0.12230304325297
C            5.02432317162030       -2.23639136772640        0.90711259621217
H            5.00548798494352       -3.12627591839326        0.30227362390933
F           -3.46301413709297        1.51332684375728        0.45324454163007
F           -2.81543990741455        2.74043279811931        2.08705284416468
F           -2.26824040063006        0.68856722031614        2.03314920967758
F            2.60102399406810       -2.03286521297752       -2.57662712326682
F            4.54381917321030       -2.48085086347510       -1.84853077426298
F            2.84302052631719       -3.49671594535036       -1.01668317850850
C            3.12178850814009        2.17616159270618        2.20312640247558
H            2.99316271899820        1.85765784702292        3.23662464066653
H            4.05881952309613        2.72736167234353        2.13251543921468
H            2.30579400516559        2.84452878870283        1.94724077390702
C            2.63258240258549        3.45031349668033       -1.00347389270367
H            2.57612859623773        3.62814021388102       -2.07631323286987
H            2.95025347583770        4.37405157490599       -0.52185365876678
H            3.38161771558928        2.68549144428393       -0.82186760011240
