69
 energy: -137.570284516612 gnorm: 0.000909406713 xtb: 6.5.1 (b24c23e)
Si           0.03219670047764        1.17137502714026        1.56802110993541
O            1.12405651867258        1.14254095272200        0.40389883763401
C            1.88378596005939        2.09311753598856       -0.33023644626296
C            2.86134711108998        1.32829767428868       -1.18644161264506
H            2.42556407626823        2.71665552432274        0.39322023697080
C            2.39939474555010        0.51104383096922       -2.21113555464451
C            4.22612542822299        1.43585306650936       -0.95874604672442
C            3.30020872902374       -0.16367868393054       -3.01468483297379
H            1.33826564121935        0.40016730154152       -2.36768405173606
C            5.12317951714350        0.75154314423128       -1.76007060759123
H            4.58781756325426        2.06004986901298       -0.15432812474927
C            4.66162285936701       -0.04200913922251       -2.79519950217276
H            2.93848737934350       -0.78413213097970       -3.82096300787273
H            6.18364636842377        0.84203845190367       -1.57723944058542
H            5.36200411760737       -0.56771644188070       -3.42719413051070
C            0.95731286039081        2.97556558629332       -1.17985425235412
C            0.28084841919623        3.95299234925968       -0.35593574977357
H            1.55344226614703        3.48577419436882       -1.94013156052235
H            0.22451624380193        2.33553347171961       -1.67815884312748
C           -0.24336954695629        4.74017154630790        0.37750855097070
H           -0.72859620939763        5.43813201375380        0.99169629299367
Cl           0.62270680127389        2.12425201601372        3.21906473551137
Cl          -1.81809482461534        1.79136064602092        1.06648029167517
O           -0.77187960288536        0.00496087888715       -1.76981871138009
O           -0.15866905379981       -0.43868428158801        1.89993114819704
C           -1.50260275702972       -1.42990892548413       -0.17661705674082
C           -0.07621333541953       -1.79695742185141       -0.03189339688222
C            1.82673631973774       -1.67032857663334        1.40574086649752
C           -2.99853429447641       -0.00517047757738       -1.30021471172199
C           -4.08406474625019       -0.50928362298721       -0.54302417082773
C           -2.48944299564597       -1.95463741262700        0.61131921012410
C           -3.82417543632712       -1.48850657767737        0.45406989121700
C            0.64441443760437       -2.40959051070025       -1.00763448257798
C            2.07162235167389       -2.55615426116234       -0.85031209659032
C            2.66525942538867       -2.11694406187433        0.37050147287128
N           -1.74536991191408       -0.44657242115763       -1.12234562075715
N            0.47304189722756       -1.48039833490308        1.19055936290167
C           -4.88723595392845       -1.95457998320769        1.24937298492905
C           -6.16291815203927       -1.49744357686623        1.05519657361813
H           -6.96949463687910       -1.85910940228108        1.67436682354448
C           -6.42588598936402       -0.56281342986926        0.04813991067040
H           -7.43624715071354       -0.21898639437642       -0.11041595629520
H           -4.69151959958570       -2.67399879901386        2.02729791637343
C            2.88663440721518       -3.07353339290272       -1.85212838722240
C            4.25673417636251       -3.15298028710486       -1.68678469846303
H            4.87105915019329       -3.56658256636615       -2.47130565947441
C            4.84217215683830       -2.68355243210897       -0.51596332548125
H            2.44969327989462       -3.41249613302094       -2.77703409491897
H            5.91447902205376       -2.72151500766023       -0.39860068017473
C            2.32490219702359       -1.41145553219548        2.78320401390117
C           -3.25863533519656        1.08986830398229       -2.30751359438283
C           -5.41377817895273       -0.07603612117970       -0.73460994638167
H           -5.64943668513561        0.64296620160043       -1.49983025174471
C            4.06914384224478       -2.16947035169401        0.49701781154388
H            4.54293339423167       -1.79457002322402        1.38849376280398
F           -3.90753263115853        2.13139969289287       -1.75214770896917
F           -4.06553080322555        0.64538084323737       -3.30221411990157
F           -2.19924211442461        1.61101194994812       -2.91079888181918
F            1.35848648802572       -1.37911594727944        3.70891258513718
F            3.18618320260726       -2.36061705292985        3.20953396281637
F            3.00316607824389       -0.24344450788416        2.90549203731356
C           -0.02770018535328       -2.89024221298827       -2.25504158310900
H            0.21350552693757       -2.22442706324947       -3.08295159551230
H            0.30815877653288       -3.89437862384303       -2.50536945574595
H           -1.10812667839721       -2.91067147579906       -2.13532164573225
C           -2.15573268195491       -3.01162307960578        1.61426089596914
H           -2.13361907431198       -2.57339340905579        2.61168273029321
H           -2.89854815664199       -3.80548172439247        1.60010187784029
H           -1.18022371458297       -3.44450026058112        1.41296970277063
