69
 energy: -137.559355177918 gnorm: 0.000877024065 xtb: 6.5.1 (b24c23e)
Si          -0.62907478924223       -1.05392102854957       -0.72172744132973
O           -2.01522463039875       -1.59343695763732       -0.12703667501060
C           -3.25150443738440       -1.95037147050313       -0.71064223745767
C           -4.35732788624081       -1.72603777312770        0.28919949412092
H           -3.41621360386656       -1.32094748031029       -1.59461640495221
C           -4.11777553055201       -1.86212456154118        1.64906243763307
C           -5.63359088471864       -1.40237378103207       -0.15193608992168
C           -5.14234646018032       -1.66641614347527        2.55806647901248
H           -3.12084082345210       -2.09675006711590        1.98811331744611
C           -6.65859743389072       -1.21742504409753        0.75797026682334
H           -5.82018116021989       -1.28810589343654       -1.21021451416957
C           -6.41431307854607       -1.34727468343427        2.11499206416037
H           -4.94566061978787       -1.76187000744511        3.61575937429091
H           -7.64834584368039       -0.96322322016704        0.40781812721633
H           -7.21341679368569       -1.19387220766149        2.82535190218076
C           -3.21369376688151       -3.42822441329224       -1.14471400594288
C           -2.28477185417230       -3.61874906549470       -2.23746862592832
H           -4.21753310517897       -3.73160310446169       -1.45179060533106
H           -2.90627674667602       -4.03558596623125       -0.28934625314880
C           -1.49514073961763       -3.71581740985296       -3.13141545097585
H           -0.80564136703586       -3.82696260166375       -3.91379129194586
Cl          -0.90944805441802       -0.08036867604190       -2.44217848895657
Cl           0.70004150252991       -2.54940000750312       -0.66347031328455
O           -0.03646214507701       -0.09647345734328        0.49370169565596
O            1.96917719178539        0.14178202010426       -1.67917262428554
C            1.31708859050252        1.77275760831615        0.14752409498765
C            2.41903580671189        0.81292001419409        0.41844905302660
C            3.64366252771736       -0.93888514560834       -0.55909394885858
C           -1.04806490128270        2.07526913581924        0.28109243746582
C           -0.95403432473074        3.27542183028312       -0.44619924411195
C            1.49606775312173        2.98690036769767       -0.42795402048461
C            0.33725293555017        3.76416791559668       -0.80591934400772
C            3.07327205375649        0.71111159444212        1.60959272582050
C            4.10083541808797       -0.26531121389469        1.74623067435364
C            4.39827480410444       -1.09512837696767        0.63067513407492
N            0.07635116111160        1.30295263473967        0.51049935958505
N            2.67933716747496       -0.01483307747847       -0.65725391762811
C            0.43871706055425        4.95394045733514       -1.51966283880637
C           -0.68999102048861        5.67014672863532       -1.87410330271181
H           -0.59124776685067        6.59396623950843       -2.42280492160695
C           -1.95060437128094        5.19493401513792       -1.52742493307042
H           -2.83076338039997        5.75108692629036       -1.81254316667777
H            1.40892092321478        5.32551971388320       -1.80674799399041
C            4.82689680747872       -0.42975301268603        2.93925740803702
C            5.81932417109814       -1.36853841737867        3.03312168180982
H            6.36935733399344       -1.48741777390026        3.95375849349034
C            6.12521887169478       -2.17472770089675        1.93203776149656
H            4.59535439983548        0.19233877429398        3.78822229030907
H            6.91355380303156       -2.90726886457761        2.00997999020567
C            3.94869692683453       -1.82253202017287       -1.74558241204742
C           -2.31975653881801        1.61598673826045        0.90278300320813
C           -2.08987809783586        4.01814900070086       -0.83085882718259
H           -3.07524539487701        3.65407475559428       -0.59254570872802
C            5.43517569193559       -2.04523889976935        0.75675352461711
H            5.69649659961735       -2.68010645006093       -0.07170932492508
F           -3.22429245369561        1.13651668818749        0.01660778534204
F           -2.96660787653657        2.62024192050211        1.54242574862862
F           -2.15084720511718        0.66802921534574        1.82838310801665
F            3.19107428491862       -1.66589347597691       -2.81740503865163
F            5.22428010815402       -1.61655733727170       -2.16580994492715
F            3.88539637630667       -3.12895734237262       -1.42800571582532
C            2.87237825829580        3.50042844131629       -0.71521788718301
H            3.03191484108630        3.54829565925585       -1.79155000602028
H            2.99687415786838        4.50128297452220       -0.30490771189247
H            3.62986695401968        2.85068459825346       -0.28491529977559
C            2.71482487097560        1.61988914735767        2.74153961492491
H            2.34170278751759        1.03607368739019        3.58126333289895
H            3.58908441673947        2.17754929083217        3.07333551477783
H            1.94437352917772        2.32336403661787        2.44007063615956
