69
 energy: -137.559604653526 gnorm: 0.000545530093 xtb: 6.5.1 (b24c23e)
Si          -0.74083373340378       -0.56920243509355       -0.42048129377631
O           -2.13389842826352       -1.10100656867563        0.15615353598404
C           -2.89430438617629       -2.26967153302237       -0.07810700574011
C           -4.03370293397901       -2.31571482255488        0.90810027722090
H           -2.23933996101253       -3.14096855413249        0.05942111812425
C           -4.71920108568389       -1.15461786190120        1.23852622636170
C           -4.42964667264758       -3.52573447845853        1.46214939919066
C           -5.78378160057132       -1.20457006245425        2.12087940959773
H           -4.40531869417668       -0.21482331129672        0.81339785469376
C           -5.50019504509920       -3.57405983999142        2.33728873822882
H           -3.89687702576515       -4.43093147503527        1.20686463158283
C           -6.17804895604730       -2.41312532378004        2.66928804595477
H           -6.30803332361395       -0.29659506795650        2.37898989998348
H           -5.80207463023834       -4.51902510631107        2.76436681016259
H           -7.01027872672250       -2.45130555799104        3.35653173228591
C           -3.44420134119398       -2.28132469811488       -1.51740430976282
C           -2.39341877182649       -2.54405808217846       -2.47686139952199
H           -4.21230913181489       -3.05534636755051       -1.59354799111650
H           -3.90083678743375       -1.30956430605816       -1.72168449057260
C           -1.49118673568314       -2.76982395337684       -3.23009287620297
H           -0.71005832015351       -2.95716635830781       -3.90466779444950
Cl          -0.92528519661211        0.50446075735126       -2.10080995910659
Cl           0.60475800440718       -2.06356371282216       -0.51798045508158
O           -0.21511329028053        0.40230447897787        0.79973627859607
O            2.34887782849661        0.48639824417542       -1.83462314471071
C            1.39088982308846        1.97046943842615        0.06708224865788
C            2.38237671944465        0.92193041815973        0.38560731616839
C            3.69291280217951       -0.80525731147684       -0.52461016792640
C           -0.85974298329904        2.67001866960292        0.44373656875832
C           -0.73281584350082        3.68850830653341       -0.51301741412568
C            1.63307685665924        3.03216881728708       -0.74445707559727
C            0.53787303016387        3.88623452518376       -1.13302622154071
C            2.76775492966834        0.63230726589097        1.66551661119929
C            3.64196404716558       -0.46627627959239        1.89398035455284
C            4.12785380973151       -1.18650239567489        0.76859829661252
N            0.16193787685874        1.76646408866044        0.66565214345374
N            2.81310533754753        0.18989454064813       -0.71216673451302
C            0.66982467045784        4.87392431322730       -2.10673319516285
C           -0.39978966281146        5.67256174021074       -2.45888175286543
H           -0.27920871423903        6.43268167676882       -3.21511189859500
C           -1.63582927260952        5.49486095822547       -1.84061826123256
H           -2.46933269858031        6.12145615004297       -2.11995820200250
H            1.61568932012223        5.01003508934500       -2.60504323209488
C            4.03230119310263       -0.86754989339529        3.18504856062443
C            4.88378115617764       -1.92393890607035        3.36559364881091
H            5.17323455600434       -2.22437526984381        4.36088030671663
C            5.38049950187714       -2.61925054113377        2.25802106772256
H            3.64430770247432       -0.34335210764520        4.04275898003965
H            6.05559494880631       -3.44777078471875        2.40673673733332
C            4.20913589242423       -1.56898097436833       -1.72094636856989
C           -2.08166406885587        2.47396673461390        1.27137191404856
C           -1.80890419833440        4.52235249456297       -0.88772477936521
H           -2.77815849199131        4.38083001145354       -0.43979084277007
C            5.01297732624599       -2.26444605427501        0.98810247643545
H            5.40493337250586       -2.82735286622062        0.15900489000357
F           -3.12667665748641        1.94566443406502        0.59049794581079
F           -2.55422922136760        3.63455239666919        1.78104568699098
F           -1.88289542285606        1.68112998907360        2.32873051952149
F            3.80188890740323       -1.16418495780157       -2.91326428424787
F            5.56484114402743       -1.51130643972462       -1.76727803263319
F            3.90735852452811       -2.88078351324016       -1.64746918878175
C            2.26855303666760        1.47214327133337        2.79724250320858
H            1.44401527168964        0.96166159343850        3.29422001171091
H            3.05652222057578        1.65081709706147        3.52411673392939
H            1.90397183946928        2.42971299910538        2.43686282202592
C            3.01402286879449        3.29342155193011       -1.25368609431172
H            3.09641852746922        2.92470193463244       -2.27606899313596
H            3.23370276415673        4.35815528730558       -1.24196764591660
H            3.75581120394311        2.78024949826700       -0.64616519686875
