69
 energy: -137.565492467223 gnorm: 0.000500506249 xtb: 6.5.1 (b24c23e)
Si           0.00093805626205       -1.45838663206450       -1.08005637726284
O           -1.28661425550783       -0.52125059195419       -0.85577266685208
C           -2.64749538900203       -0.80464756624107       -1.14377789426808
C           -3.34245714721454       -1.46440865409291        0.01977604873007
H           -2.67915343124533       -1.47042918783056       -2.01641776632648
C           -2.89711712755685       -1.29072074175228        1.32208324627236
C           -4.47216818516293       -2.23832155284655       -0.21869461597522
C           -3.57511490074873       -1.88503351236438        2.37256690966279
H           -2.01183472614646       -0.70785803300440        1.52486218354030
C           -5.15013091912811       -2.82626922440221        0.83287878481496
H           -4.81560338847389       -2.38216299816969       -1.23364132719141
C           -4.70296910404701       -2.64922755603468        2.13198683896304
H           -3.21640396003356       -1.74344484097472        3.38056548033935
H           -6.02640831250613       -3.42658219938327        0.63742864888460
H           -5.23195304271802       -3.11020541671299        2.95290212049908
C           -3.34154581451394        0.52061726336010       -1.50552987712742
C           -2.64887912041054        1.18158393385294       -2.59008047281094
H           -4.37222202730329        0.30613346621701       -1.79666243385420
H           -3.35904768733533        1.16917795700988       -0.62921264356544
C           -2.02634864870721        1.68693670579064       -3.47778588051795
H           -1.51116863723871        2.14109719093656       -4.26982017934517
Cl           0.48555757384736       -2.51436790885516        0.55482721340510
Cl          -0.23651530998043       -2.58031794478125       -2.71742738460719
O            1.20841828809572       -0.40531461954233       -1.44046369934689
O           -0.27470953609674        0.63038456647157        1.92363316689090
C            1.93158889277342        0.72111573168267        0.51486261683690
C            0.84193096467156        1.67726961747126        0.24665188223242
C           -1.26523109768706        2.43490601747986        0.96201292989203
C            3.30183438388028       -0.97264011745702       -0.46565607212534
C            3.85513352552437       -1.29383134213029        0.78231857316616
C            2.56054301891077        0.58900311861292        1.71431039633042
C            3.48172602852976       -0.50283853528287        1.91097206248105
C            0.87571127650922        2.56926412759651       -0.79381124353847
C           -0.26481894519565        3.37798596169627       -1.05175972358554
C           -1.34870564411685        3.32709205456871       -0.13438294987127
N            2.28226708019536       -0.04751091976531       -0.57728179744542
N           -0.25794284366324        1.55477061056240        1.08057631519583
C            4.00030423752393       -0.82627889158007        3.16375181801630
C            4.88159883595618       -1.87707422987714        3.31853411248024
H            5.27316318659652       -2.11255936658035        4.29600949477493
C            5.26295568237104       -2.63704803896257        2.21405637966272
H            5.95148571774514       -3.45855821004551        2.34127550395854
H            3.69819465373551       -0.26045587859650        4.02980377211212
C           -0.35989342076123        4.22456990411132       -2.17162002140867
C           -1.47103355564065        4.99647219617432       -2.37789565578803
H           -1.53436492555993        5.63811694873401       -3.24332717451641
C           -2.53435696587094        4.95173751350911       -1.47054694363919
H            0.44662918602965        4.25029678724079       -2.88577704108940
H           -3.40977019282738        5.55817758518058       -1.64318371265315
C           -2.33715036820718        2.46233074000467        2.02367729326449
C            3.72483378743017       -1.59960055904493       -1.74881011596966
C            4.76146041516601       -2.36046733172319        0.96695783098151
H            5.04199638022656       -2.97636113968857        0.12896291118756
C           -2.47923640313982        4.13757219500286       -0.37203433504033
H           -3.32152203885122        4.11027675811750        0.29840835184406
F            3.22779837452040       -2.84393042023034       -1.93981877290144
F            5.06325450250263       -1.73325076010039       -1.85012412289668
F            3.35845213271782       -0.88214236300576       -2.81967542558732
F           -2.09578404317085        1.75834297929816        3.11975977318366
F           -2.53099398793604        3.73130243790332        2.45589788489829
F           -3.54024747319741        2.05364723052713        1.56492072234716
C            2.10493549579702        2.67908806954065       -1.63692164881452
H            1.99553271447202        2.05523615243539       -2.52388389865160
H            2.27183868214913        3.70606870265137       -1.94925702754332
H            2.98013437340696        2.33550436891687       -1.09272402199388
C            2.29167819966717        1.55354072957467        2.82432122427569
H            1.56790501414222        1.12008677624124        3.51521771478348
H            3.20712303253985        1.77949763191719        3.36529986759460
H            1.87951488299102        2.48432025468726        2.44089085062167
