69
 energy: -137.474556649168 gnorm: 0.000910279000 xtb: 6.5.1 (b24c23e)
Si           0.51716403247039       -1.72189487487756        0.58207776844613
O           -1.60627770251976       -0.83865286847148       -0.40847007629014
C           -2.51882858881311       -1.59438488133285       -0.68216836173807
C           -3.72003995006808       -1.18356367541889       -1.39657944597145
H           -2.48136119275357       -2.64558273125636       -0.37048217025260
C           -3.77447752132808        0.05720701926247       -2.03629971961583
C           -4.83400575494774       -2.02452355573959       -1.43086287597418
C           -4.92480932147201        0.45241669746106       -2.68783250131362
H           -2.89937078454203        0.68851214520359       -2.02063489848649
C           -5.98573520293162       -1.61860171836159       -2.07573355025380
H           -4.78762896666598       -2.98493906619347       -0.94034114266863
C           -6.03290682393190       -0.38175967128474       -2.70276527986681
H           -4.96174203690162        1.41073044314999       -3.18380134019524
H           -6.85030645807805       -2.26498287463230       -2.09585010068040
H           -6.93448629608987       -0.07018598665742       -3.20905297939791
C           -2.12896677883808       -4.59246682722505        1.53753516305793
C           -1.31836963501915       -3.60076655421257        1.73473392896754
H           -3.19014585273290       -4.44941612343712        1.41118330386365
H           -1.77035693654082       -5.60782224678274        1.50540930139436
C           -0.49125596524198       -2.62562487159103        1.92541915413831
H           -0.30378440409641       -2.29116565642291        2.93562495990631
Cl           2.44135921276649       -1.98144045355308        1.36626038155044
Cl           0.25385379847038       -3.14395761678510       -0.92528414338299
O            1.05966140110273       -0.61020020746691       -0.75845210363519
O            0.25223736047643       -0.12682928751367        1.60599678831409
C            1.71608202247409        1.41815196375972        0.12127266245941
C            0.26187053893796        1.68564957740045        0.21005628410835
C           -1.72125923534786        1.08027401945678        1.33841208858118
C            3.32740130247881       -0.06123161279396       -0.77380752933343
C            4.37370346338871        0.69644917059509       -0.20617092102747
C            2.66975411840764        2.24530893178251        0.64915624853338
C            4.04792471864730        1.86777182936189        0.53815342799671
C           -0.37694335219364        2.63052756559696       -0.54841456765148
C           -1.79848375010538        2.76691323782787       -0.42525598885285
C           -2.47742068663047        1.96933947892193        0.54086598003864
N            2.03829690249682        0.26540762068529       -0.52026897319079
N           -0.39876537100716        0.89775374193653        1.09443822188796
C            5.07878652326665        2.61235255348106        1.11948252290391
C            6.39419888305358        2.22312730937005        0.98609812358679
H            7.17756008223980        2.80798475091569        1.44290520511674
C            6.71293590223344        1.07105447023316        0.26978975108821
H            7.74318453828061        0.76289616944302        0.18139454924695
H            4.84394512402504        3.49962205284024        1.68423396767942
C           -2.53866886902347        3.64113329176192       -1.22765646785355
C           -3.91007825953270        3.72566928386121       -1.10644117912036
H           -4.46513112035365        4.40606216580710       -1.73378095247351
C           -4.57733448846703        2.92732774709202       -0.18247034360504
H           -2.03305701297660        4.25387959664890       -1.95584766753653
H           -5.65212901875548        2.97968475116949       -0.10296778884123
C           -2.36251066650824        0.34262045966810        2.47224243138286
C            3.63184490872140       -1.15112190119799       -1.76494633442451
C            5.72752458470002        0.31751408076812       -0.31961193299785
H            5.99469042822824       -0.58142585756817       -0.84779954287140
C           -3.88071776101085        2.06422910033243        0.63028058012637
H           -4.42495448660422        1.44184911221747        1.31936231457138
F            4.22376170511866       -2.22963506976051       -1.24000526746553
F            4.51134852630605       -0.67799011902553       -2.69227176920312
F            2.59206873199361       -1.56844011197678       -2.47481749645977
F           -1.52130704906514       -0.17616489684151        3.35887351419607
F           -3.15255574973292        1.17109776720630        3.19885218485445
F           -3.17872584611219       -0.65610804328865        2.07091059957587
C            0.37950386138925        3.46839549927673       -1.53126409105174
H           -0.00806712259194        3.30488689887494       -2.53590221152795
H            0.26974056747821        4.52604345872166       -1.29423749425082
H            1.43623741894564        3.21954781947030       -1.52845917225946
C            2.28604097623806        3.49837539355922        1.37140647001768
H            2.64210214800607        3.45441706715387        2.39956645803532
H            2.73673610741411        4.36722838057276        0.89355467249571
H            1.20835812977682        3.62895473881794        1.38732937359817
