75
 energy: -118.540005765233 gnorm: 0.000648641119 xtb: 6.5.1 (b24c23e)
Si          -0.59570809206516       -0.84375680853994        0.67550853727631
O           -1.58546772182465       -0.82185773080886       -0.60448177054420
C           -2.91475479853489       -1.25898610834069       -0.75360490744723
C           -3.02749589834893       -2.75115413816573       -0.57928059774504
H           -3.54187596738944       -0.75937951033519       -0.00512641409028
C           -2.01166605615551       -3.58039519915858       -1.03412721944094
C           -4.13786224394796       -3.30866858527175        0.03820742295239
C           -2.09866368603039       -4.94993959972400       -0.86383156848519
H           -1.14474049664778       -3.14020637988216       -1.50432228933201
C           -4.22840485449364       -4.67955121606077        0.20024415937354
H           -4.92357270088962       -2.66516142439068        0.40610932407177
C           -3.20884013670707       -5.50211729210939       -0.24805614933669
H           -1.29800448626716       -5.58746664016484       -1.20951505629548
H           -5.09236773116690       -5.10613775928520        0.68825801027933
H           -3.27629864228045       -6.57143304091852       -0.11123488627271
C           -3.35992230715208       -0.84215484906474       -2.16879178208974
C           -3.20295846408343        0.58505917259507       -2.35291524458437
H           -4.40351475303202       -1.13035281915783       -2.31647935096464
H           -2.73734594957169       -1.36608994161313       -2.89829296629334
C           -3.04007558410199        1.76616020716836       -2.46124826663161
H           -2.90541456705847        2.80104654168393       -2.57176230449149
Cl           0.57178999179342       -2.33730680103840        1.48928725332774
Cl          -2.15128866059663       -1.16572380191452        2.17033858060955
O            0.65647881319364       -0.52903009035846       -0.63832341650979
O           -0.18617267866859        0.63568793304577        1.45030971624227
C            2.14092839326481        1.03658612648977        0.13030269350046
C            1.03143531499458        2.00202903585762        0.03315337194305
C           -1.16873012218705        2.64733735621865        0.72664484681689
C            2.91383865896159       -1.14395988710166       -0.45888120912862
C            4.21736977149795       -0.79506088827239       -0.03442773214217
C            3.38188337777554        1.42337774761570        0.54108635985724
C            4.45875438070246        0.50111777494489        0.51158440492846
C            1.16360843273210        3.11801266140734       -0.73769237568974
C            0.08033951844403        4.02824188150649       -0.87307873528909
C           -1.10609519991820        3.77343426060223       -0.12065243449798
H            3.54164179618464        2.43084173694276        0.88901592177963
C            5.73272427254068        0.85725429538138        0.95970197514727
H            2.08088473544214        3.28938197428375       -1.27694297718841
C            0.16409401979602        5.13992963605863       -1.71017570036039
C           -2.17566264124630        4.68390442490622       -0.27755096667962
C           -2.26173996000789        2.36395857001073        1.72087959503004
N            1.92419041356832       -0.22834456124681       -0.30874802796547
N           -0.11067172435651        1.78646630890914        0.72664734315668
C            2.53994447456536       -2.40210221711059       -1.19806732081920
C            5.32190145480009       -1.66968523845627       -0.12270189459678
C            6.78324898040085       -0.03283131448623        0.87375127506985
C            6.56792712939696       -1.29295423854987        0.32346575328022
H            5.19526575726257       -2.65268139225755       -0.53463953827582
H            5.88100422385142        1.84371450653566        1.37315524359833
H            7.76456235659000        0.24631790690773        1.22504660290830
H            7.39060506345866       -1.98830881484119        0.24607957645451
C           -0.90102255818690        6.01230121183544       -1.83374428590076
C           -2.06782951831085        5.77121224673134       -1.11509987975833
H           -3.09862372827580        4.52041121486445        0.24701854862825
H            1.07564778379257        5.30734643794675       -2.26452497527256
H           -0.83020392688154        6.86997895067420       -2.48470619855784
H           -2.90563349035136        6.44557810743367       -1.21691373670766
C            3.13470182273896       -2.36037866964493       -2.61339799747463
C            2.88087845105409       -3.71571230418909       -0.48290975445471
H            1.45386845736332       -2.37046439576965       -1.30334447543005
C           -3.64686555450743        2.14036329542097        1.09494339794330
H           -1.99391784385431        1.43371054226874        2.22382575315464
C           -2.29463284526708        3.45145378893958        2.80367305521495
H            2.82918239451348       -3.24930293721921       -3.15963725794948
H            2.77426235676668       -1.48586264455676       -3.15093373552064
H            4.22071583944270       -2.32303286334732       -2.58745632606592
H            2.15595147917309       -4.47325319672775       -0.76929310808549
H            3.86541083180966       -4.08804998995610       -0.75189366415748
H            2.82444982266376       -3.59192689268764        0.59355464275102
H           -3.55490984506412        1.75578300597435        0.08202367125144
H           -4.19015351599519        1.41212229211297        1.69193472853048
H           -4.23701082467385        3.05290755062068        1.06895376817755
H           -3.05828470916293        3.20076657077682        3.53525685102504
H           -1.33562346407651        3.50409504056185        3.31461605903836
H           -2.51487562119728        4.43127686749152        2.38863605520379
