75
 energy: -118.544663169016 gnorm: 0.000631618476 xtb: 6.5.1 (b24c23e)
Si           0.28221302292708       -1.69760277028305        0.26200346273982
O           -1.31382372528816       -1.56742295110306       -0.00881122979940
C           -2.15685343862096       -2.10618950542876       -1.00945460225753
C           -2.82991191536288       -0.91281556680979       -1.65193037169151
H           -1.53555184296195       -2.61488499385046       -1.75820348142570
C           -2.00684914702560       -0.00958841756841       -2.31840572793453
C           -4.18462434226074       -0.63213326578172       -1.54967588502042
C           -2.52283554701357        1.14991060353151       -2.86319778877667
H           -0.95205227809243       -0.22905020244418       -2.40115287362940
C           -4.70161871106755        0.53221113806508       -2.09545875707243
H           -4.85462009390518       -1.31922708120418       -1.05560091868628
C           -3.87511340577264        1.42664159858289       -2.74905949029697
H           -1.87080313158213        1.83854292457702       -3.38018181727226
H           -5.75798195467047        0.73936443021877       -2.00599187919346
H           -4.28156320912224        2.33410723282394       -3.16975734537267
C           -3.10234040083787       -3.14278754348551       -0.39062300713596
C           -2.33631377543785       -4.21303204854124        0.21574751919704
H           -3.74424726302876       -3.54750220726226       -1.17746828495277
H           -3.71854076134264       -2.67726065589323        0.38097495273112
C           -1.66937595983599       -5.05787337476494        0.73706444156566
H           -1.08271670757297       -5.80608028267631        1.17895177873661
Cl           1.07951693940012       -2.66550601076631        1.88054374702906
Cl           0.69281279408188       -3.30089393173441       -1.12032055169685
O            1.21939019028937       -0.70386670430402       -0.79679793597392
O            0.14295017289732       -0.27635641221198        1.42809823184812
C            1.62715241527153        1.42034881552085        0.03689838678713
C            0.17301480577681        1.62540875185175        0.14176891383492
C           -1.80833688335413        1.02406720282468        1.32247888150116
C            3.45259407244686       -0.06014839951668       -0.44238268489872
C            4.36512158795773        0.92922731269561       -0.01619370314171
C            2.47771220103852        2.42730223418626        0.38300833176456
C            3.88224124084197        2.21534641437947        0.37611559285565
C           -0.44614843218663        2.67847527781773       -0.46473405289948
C           -1.82395476598722        2.92071646280392       -0.23500771986694
C           -2.49925023002091        2.09725545833728        0.71396232271934
H            2.07893679842401        3.37401591390644        0.70897368215534
C            4.76629608364559        3.22135981257881        0.76348604657726
H            0.11478488472821        3.32274622441780       -1.12181971114741
C           -2.49715650415245        3.96147654993864       -0.87755211405764
C           -3.84658421956578        2.41126361696756        0.99349176187283
C           -2.33553252933688        0.15890872388318        2.43519668254775
N            2.11889237746892        0.23057804672774       -0.38600517338062
N           -0.51913832199194        0.80501870461604        0.96987675482298
C            3.81813828603945       -1.40792842475574       -1.00323542106521
C            5.76265175032758        0.72668128451541        0.05137998198964
C            6.12804255797923        2.99135821790731        0.79222794457345
C            6.61294051789952        1.73456671560312        0.44424556151587
H            6.18046451346921       -0.23270367616261       -0.19113816767426
H            4.36676745334460        4.18374669850868        1.04722070799659
H            6.80751611031734        3.77379254275125        1.09225963638672
H            7.67511055007330        1.54335521891033        0.48502240874624
C           -3.82495858141875        4.21615120544239       -0.60284216119296
C           -4.48800051638745        3.44014570843910        0.34230908411760
H           -4.39044313143594        1.84274716263648        1.72367489777965
H           -1.95893304327602        4.56500268738295       -1.59318059865471
H           -4.34248324927130        5.01720767611802       -1.10792881305516
H           -5.52226479648644        3.64874127124690        0.57286411690032
C            4.72395440790110       -1.30847306918023       -2.23783872406835
C            4.38678306964029       -2.34860076637932        0.06632372960691
H            2.89277096770112       -1.86980082496057       -1.35342169447213
C           -3.70591418687078       -0.48135150811917        2.17479137011000
H           -1.61367293524102       -0.65151543782659        2.55346668791979
C           -2.33274190648014        0.96751943420066        3.74116028482636
H            4.76020729261451       -2.28157928016923       -2.72110162802489
H            4.31620750532664       -0.59108934695512       -2.94667879981222
H            5.73922527769849       -1.01079516890365       -1.99778669671986
H            4.55140329447885       -3.32673122108266       -0.37776906924485
H            5.32524472117210       -1.99072973379529        0.47894420515916
H            3.67452036184354       -2.46420031579484        0.87967512337332
H           -3.92793919485877       -0.48938232548897        1.11177457618601
H           -3.70012491329728       -1.50579764331278        2.53994897278870
H           -4.50259741934772        0.04427490802444        2.69674880288401
H           -2.67416148569723        0.33741629166412        4.55852565600037
H           -1.32705754743667        1.31180059960434        3.97191480634825
H           -2.98583782011993        1.83431399429894        3.66744583506908
