75
 energy: -118.543621927369 gnorm: 0.000578852927 xtb: 6.5.1 (b24c23e)
Si           0.54770058301832       -1.14691660898592       -0.28439793714429
O            1.84215509218780       -0.41608641656342        0.38198927497823
C            2.77869387785213       -0.95553628045312        1.28871370381310
C            3.66691413424395       -1.98518008406132        0.63846140993312
H            2.23356995748262       -1.41378792289438        2.12198529987144
C            4.01485693682840       -1.86627711208580       -0.69885586480236
C            4.16853386249900       -3.04525291864311        1.38060760010421
C            4.83990308464764       -2.80374725933470       -1.29338428731581
H            3.61605478737551       -1.04780357387793       -1.27923563651611
C            4.99977909257587       -3.97793242988559        0.78822467968926
H            3.88972719890749       -3.14837478094865        2.41922373843074
C            5.33569153855590       -3.86034869344053       -0.55008832577814
H            5.09167399544072       -2.70989707473043       -2.33944903368763
H            5.37768142140693       -4.80604268076180        1.37027199708430
H            5.97686646415252       -4.59526383964263       -1.01406949309359
C            3.65382080298427        0.19041955958986        1.82978931360305
C            2.85162829987185        1.27229956158652        2.35671598913097
H            4.29576987920396       -0.21155487078457        2.61780565086969
H            4.28722155947656        0.56320918929280        1.02171952167992
C            2.17069312616954        2.16558623411190        2.76960644075666
H            1.58766379510173        2.95254903828030        3.14479626978080
Cl           0.50841762838854       -1.96410600277047       -2.17436442508358
Cl           0.79285388343182       -3.07477425917303        0.67660239193232
O           -0.85202667746288       -0.93865109149741        0.69720225440169
O            0.15175717832296        0.38935418657977       -1.18165278675814
C           -2.16319475090403        0.86796406278638        0.06390542163786
C           -1.01301338546021        1.76879822881759        0.24092224076396
C            1.10208131029791        2.45675466543885       -0.61933695782715
C           -3.06255050682103       -1.35541445088789        0.02028287022261
C           -4.30445892563775       -0.84696706286924       -0.41763093609907
C           -3.36490133032314        1.40206868684223       -0.29948510215039
C           -4.48171642911838        0.56383449076368       -0.55340017261810
C           -1.11624638763142        2.88971971007987        1.01490969145276
C           -0.09046436030503        3.86702407476173        0.99460846622737
C            1.00680642328956        3.66824158812006        0.10471832812134
H           -3.45497606999573        2.46738382145389       -0.43569842602353
C           -5.71044419202767        1.09537132041007       -0.94353271517527
H           -1.99374080224858        3.04109682585537        1.62206907650654
C           -0.16970594101827        5.02228033023697        1.77631019718205
C            1.94477722790047        4.71676037936628       -0.00304058470959
C            2.18687140973610        2.10876886065828       -1.60212052038571
N           -2.04396111027944       -0.47075753273327        0.24123391576918
N            0.10007015769023        1.55385834801759       -0.50197770377118
C           -2.76404301564102       -2.80258055926411        0.30419477966458
C           -5.41584368376676       -1.66052591725692       -0.73778096748926
C           -6.78084294784892        0.26756080048629       -1.21976770386930
C           -6.61662257293667       -1.11088889734440       -1.12367119279468
H           -5.33162686355521       -2.73043322908811       -0.69481433570557
H           -5.80961555694477        2.16732699555838       -1.02943094232002
H           -7.73058372077877        0.68389126714469       -1.51734993581149
H           -7.44469549374126       -1.76340260333246       -1.35809272969094
C            0.79715573764522        6.00333609284311        1.68170767474386
C            1.83952217689752        5.84937350129258        0.77358287707481
H            2.75484944940731        4.64434990834037       -0.70343490605835
H           -1.00497960496776        5.13730665279971        2.45149140482168
H            0.73572773563531        6.88953007171928        2.29450042338430
H            2.57928201494807        6.62969196028029        0.67421164707802
C           -3.68523342867671       -3.40106244395567        1.37520343983969
C           -2.72259962536513       -3.64574834339204       -0.97647983509382
H           -1.75908318208705       -2.84619254396329        0.72740834854926
C            3.61729978610767        2.37562829797029       -1.11112628044474
H            2.09342021380548        1.03634285081427       -1.78135455612184
C            1.90705777735247        2.81159874622215       -2.93897222848416
H           -3.29148991481547       -4.37124691698390        1.66727893231668
H           -3.70094874675518       -2.76126456124279        2.25472528792171
H           -4.70617170677015       -3.53677075217807        1.03446572250083
H           -2.40450111011483       -4.65345937746490       -0.72309938866660
H           -3.68637169758752       -3.69876369931696       -1.47373564338128
H           -1.99804873077396       -3.23107509603174       -1.67315632266404
H            3.64276714164121        2.48403641367387       -0.03074298733162
H            4.26078782503823        1.54479907536028       -1.39201550023943
H            4.03593032294557        3.27190753821198       -1.56313829093864
H            2.66861868925995        2.53341404197132       -3.66314267788810
H            0.93813235524594        2.50774229488668       -3.32847990060443
H            1.91049153737055        3.89305721519336       -2.82147604732167
