75
 energy: -118.543438266149 gnorm: 0.000396580988 xtb: 6.5.1 (b24c23e)
Si           0.25531482238787       -1.33011961086537       -0.24582641271536
O            1.63356070020565       -0.59894195455740        0.22041611671735
C            2.58544402577623       -0.95408010079270        1.19277143183399
C            3.70490569489259       -1.79380145388211        0.62214126026164
H            2.09236943717702       -1.53525950641480        1.98273727210313
C            3.76550227404504       -2.11790463785750       -0.72459178281455
C            4.69060502475857       -2.27801036435246        1.47593585789742
C            4.80222756841906       -2.89395527409626       -1.21436050450957
H            2.99078995564574       -1.78049186855204       -1.39444186024292
C            5.72797857219931       -3.04807322493250        0.98577628998810
H            4.63629304255961       -2.06486356342604        2.53412712660100
C            5.79030156801787       -3.35424827802603       -0.36379812331756
H            4.83028772707093       -3.14173018800083       -2.26499107659847
H            6.48646738370912       -3.41737927195831        1.66049689358498
H            6.59963312541766       -3.95848794569049       -0.74608994091594
C            3.11284193942003        0.35912888586218        1.80737510572200
C            2.05947284092571        1.03022769314313        2.53693795108423
H            3.94075315629092        0.13764572674297        2.48344965289545
H            3.47440392106700        1.01308285544323        1.00972815389914
C            1.15409427205606        1.54662673066800        3.12407836315468
H            0.38089162752089        2.00988886892016        3.65952286970241
Cl          -0.00043137658009       -2.35354980427282       -2.01324919299045
Cl           0.48405046260697       -3.12503959903394        0.92815721638047
O           -1.04842690813281       -0.93365554687120        0.80043409860606
O           -0.12246304397502        0.12785452584211       -1.28194838599648
C           -2.17465893628276        0.99520399079629        0.15989815343095
C           -0.90251268207202        1.73706597414486        0.15902826957027
C            1.15985338050401        2.06910196164561       -0.99647134595118
C           -3.34051856598330       -1.09458936238577        0.33014892942427
C           -4.54451140997583       -0.45468607719361       -0.03497091776941
C           -3.32880393262682        1.66035268534995       -0.13100764686573
C           -4.55875183177604        0.95931368339397       -0.23848466190231
C           -0.73709629385877        2.87969235639554        0.88475743488945
C            0.45977238299997        3.63052283913958        0.76302901269252
C            1.40772158965764        3.22891794116676       -0.22495863558265
H           -3.29794564558212        2.71985985430670       -0.32643946642112
C           -5.74179712546887        1.62262025501879       -0.56198901408284
H           -1.51041906077618        3.20004458218330        1.56362971930391
C            0.69463276152521        4.75662814726182        1.55431684629330
C            2.56373936798894        4.02607247129434       -0.36578565639970
C            1.92403465070007        1.63863009146962       -2.22254700305207
N           -2.20634699049726       -0.33617377173884        0.41384411773156
N            0.05764143280458        1.33570708395577       -0.70831112980485
C           -3.19371601002152       -2.55336799361756        0.67184364151032
C           -5.77066705835940       -1.13511540696508       -0.21799747022147
C           -6.92456256288392        0.92456706432900       -0.70714508398755
C           -6.92296200642686       -0.45719286072578       -0.54263965108876
H           -5.81548937664751       -2.20360880146715       -0.11705996298959
H           -5.71572517074432        2.69299927640809       -0.70304988720761
H           -7.83731243953669        1.44279895763171       -0.95648460970142
H           -7.84132021730853       -1.01013725387861       -0.67409597047774
C            1.84629699045033        5.50012810647417        1.39918132521515
C            2.77423914964772        5.12768947383111        0.43217210274959
H            3.30850074527674        3.77220597716721       -1.09774898877915
H           -0.04201598579768        5.03688483970369        2.29248919986484
H            2.02496947899294        6.36541852077014        2.01850743189914
H            3.67457488074154        5.71014354578209        0.30356731152919
C           -4.08130701402338       -2.97878508758884        1.84870644281937
C           -3.37015727561703       -3.45431233098251       -0.55703173252213
H           -2.16720785356881       -2.70180443556614        1.01254018199641
C            3.38281385699377        1.23644367908264       -1.99083352413636
H            1.41534707354246        0.74310905291493       -2.59101113622190
C            1.80051009570574        2.70843827044906       -3.31692364245222
H           -3.79291302456559       -3.98054898767791        2.15695652484716
H           -3.93102247334070       -2.30743366474096        2.69120663597289
H           -5.13834045267471       -2.98830217017702        1.60504617194662
H           -3.18145246637072       -4.48492623014504       -0.26821589139879
H           -4.36651252788185       -3.38898318636620       -0.98342122759121
H           -2.64920383732803       -3.18349483807906       -1.32473607387996
H            3.44738853818718        0.52295781543822       -1.17653506587344
H            3.76238141016664        0.75637940069358       -2.89019299534725
H            4.02632718965514        2.08216434212327       -1.76866875363887
H            2.26937910032695        2.34476833863694       -4.22794568768891
H            0.75356583831245        2.91367306001204       -3.52964513406262
H            2.27888350033591        3.64013472728642       -3.02944786691832
