75
 energy: -118.540031116591 gnorm: 0.000441008693 xtb: 6.5.1 (b24c23e)
Si          -0.15364516289247        1.42535975954007        0.76342228815448
O            0.91417573517950        1.60712892474112       -0.43710998209380
C            2.03348286983418        2.42269751782496       -0.64861332945893
C            3.14324010065326        1.58417045799339       -1.23566375194454
H            2.35736931529748        2.85657496848848        0.30685928118699
C            2.85832868106751        0.37946312914744       -1.86525195839077
C            4.46416029391504        2.00665188819197       -1.14351217837781
C            3.87907323288974       -0.40437716001047       -2.37324690388392
H            1.83114396044453        0.05684895505409       -1.93911186497409
C            5.48275855619188        1.22733627286558       -1.66167391131440
H            4.69198404717778        2.94028024270518       -0.64962193242152
C            5.19327132563659        0.01706885179243       -2.27071455792591
H            3.64657083800243       -1.34727894982835       -2.84637608691297
H            6.50689540476105        1.56091712639732       -1.58148297051630
H            5.99083804299012       -0.59588744573503       -2.66364433816314
C            1.64439716746783        3.56244322135300       -1.61246921781736
C            0.60413692959247        4.37691357958290       -1.02205856414598
H            2.52614246941921        4.17133160134564       -1.82532181283947
H            1.27890076180147        3.12133821597093       -2.54370113157561
C           -0.27161038551766        4.99411429252452       -0.48967096437943
H           -1.03000080834556        5.55123012278326       -0.02687973854304
Cl           1.03126237630090        2.42045811810234        2.29206326116592
Cl          -1.86743868686242        2.36296439104776        1.40711776690518
O           -1.09752341876853        0.60693894148861       -0.60936022421267
O           -0.05284476401558       -0.07113261693557        1.61514621187616
C           -1.76727918484862       -1.46409695155560        0.08519437834763
C           -0.33164837365295       -1.80469366090052        0.10883797361649
C            1.81012638902875       -1.42568755168309        1.11320214390067
C           -3.40058787191331        0.14834791498680       -0.57279138811586
C           -4.43001055417968       -0.76342048020605       -0.23843233327318
C           -2.72138967095974       -2.38393770353478        0.40151760729925
C           -4.09444821965115       -2.04775818357399        0.28537014102796
C            0.16480909500474       -2.79671147187625       -0.68047233912825
C            1.55872662637026       -3.08427220588076       -0.67663067838849
C            2.38459770700590       -2.38484684166635        0.25480544424604
H           -2.43049285859211       -3.36383479792599        0.74329566043106
C           -5.09621645842697       -2.95564666397175        0.63641840794990
H           -0.49555456376689       -3.33943400336852       -1.33721197752975
C            2.11164231946318       -4.02518499995350       -1.54310823710437
C            3.76371272529706       -2.69247169823967        0.25599506186625
C            2.49888686894559       -0.77760120672763        2.28215044495137
N           -2.11720826196639       -0.22720139911839       -0.34899757389992
N            0.48804640577690       -1.13199062457463        0.95115848717068
C           -3.58833977411597        1.46104761809224       -1.28703122832958
C           -5.80252891544865       -0.47517417845762       -0.39947599519933
C           -6.42750851425955       -2.63063885249122        0.47840467556322
C           -6.76992153400273       -1.38760077380839       -0.04592437811488
H           -6.10723583934564        0.47545146503549       -0.79390895793468
H           -4.80920980980505       -3.91785023999395        1.03378329402727
H           -7.19710161569738       -3.33445428231694        0.75536400050733
H           -7.81118236858008       -1.13275026881319       -0.17656773779442
C            3.46683979579001       -4.29681188465445       -1.51748301029163
C            4.28287156610676       -3.62363081768582       -0.61348020355219
H            4.42483093608234       -2.17868404965285        0.92844910948153
H            1.46366848971300       -4.53904307823015       -2.23793424374893
H            3.88840348114341       -5.02471701710503       -2.19348020191552
H            5.34228400310242       -3.83256500610592       -0.59410903550310
C           -4.02967661317123        1.20144255150078       -2.73478771772350
C           -4.51661018631496        2.46298629489705       -0.58873701031917
H           -2.59925626078480        1.92235886824607       -1.32905034081344
C            3.74882935940773        0.04080383991908        1.91947068889729
H            1.78045809179696       -0.08517861856362        2.72341213831283
C            2.80673087581601       -1.83716461662230        3.35033520780728
H           -4.12092092185812        2.15008973976303       -3.25761891680182
H           -3.29193363430932        0.59324932704210       -3.25370316719506
H           -4.98650290344810        0.68713834850840       -2.77437184564833
H           -4.19853634433112        3.47085507142939       -0.84123422405584
H           -5.55080661050646        2.35744448428584       -0.90429397128759
H           -4.45656212907253        2.35518312301109        0.48928418701669
H            3.76236663216602        0.28708115808508        0.86204841630343
H            3.74294006492206        0.97170194156926        2.48010258855490
H            4.66401451521888       -0.49240950514187        2.16536473266533
H            3.25583529648699       -1.35296506685717        4.21356663449478
H            1.89135432371840       -2.32994437115698        3.67150281527615
H            3.49062054242156       -2.59481608038739        2.97632808455530
