75
 energy: -118.541937025688 gnorm: 0.000701284136 xtb: 6.5.1 (b24c23e)
Si           0.29049489532345       -1.41572839145930        1.21527204185854
O           -0.81023447583017       -2.17716532507307        0.30299421253739
C           -1.02026854331829       -2.28254592222201       -1.09489911057866
C           -2.33136130069478       -1.60938875651233       -1.41776912194472
H           -0.21394751790309       -1.76574569743013       -1.61949358415620
C           -3.53893727043547       -2.14608921810054       -0.98931701108707
C           -2.33512085016849       -0.39675230062008       -2.09462889890118
C           -4.72719206774414       -1.48388120248085       -1.24270483080486
H           -3.54939230507970       -3.07749799634912       -0.44436312980879
C           -3.52332754964621        0.26323993236216       -2.35232982894908
H           -1.39817446602646        0.03313767270843       -2.42057936259992
C           -4.72244904156537       -0.27935916362116       -1.92495282734911
H           -5.66010585529673       -1.90970392406612       -0.90331716954070
H           -3.51256330967626        1.20503515940935       -2.88053201470035
H           -5.64965325683816        0.23847419350183       -2.12077306722496
C           -0.98394859742467       -3.77006055206955       -1.47797270508225
C            0.37326443798832       -4.26562013016125       -1.39199742458850
H           -1.36198369336320       -3.88897819670829       -2.49688713445550
H           -1.61433829795741       -4.33600076476903       -0.78935580174814
C            1.51277699697509       -4.61891814834920       -1.30165119281763
H            2.49859013301596       -4.96794385791585       -1.22306689950574
Cl          -0.55754578478067       -2.30431115062182        2.93855107366906
Cl           2.22151419658185       -1.87552723334963        1.76261158899437
O            0.96375299212996       -0.60588666378353       -0.38516183253054
O           -0.03790753092491        0.16329020307754        1.81505993507000
C            1.47108049346788        1.57544716260256        0.05600518315128
C            0.01576489774706        1.78751226306785        0.16098453899231
C           -2.05189137691093        1.24172763116704        1.24790419898517
C            3.19279376432496        0.06798583349567       -0.62511447859115
C            4.14915340147065        1.10156952308818       -0.48577715465110
C            2.35472450190259        2.60303265492311        0.20454718891878
C            3.73618914681496        2.38792873747302       -0.02718809412420
C           -0.60007627654249        2.69824510500318       -0.64406067499757
C           -2.01243482547477        2.85811121066436       -0.59807520699950
C           -2.74384019834472        2.09465047543950        0.36203962185254
H            1.99932223255708        3.57706959248774        0.49842273041027
C            4.66985344985307        3.41345955020406        0.14498188254121
H           -0.01706598670565        3.26822742231382       -1.34925812363471
C           -2.66998936135599        3.72933248265923       -1.46404165248439
C           -4.14901108896110        2.24325951014867        0.36016563183955
C           -2.63972802662723        0.55800765314561        2.45218690437034
N            1.90554328545273        0.34216644901202       -0.30762495291805
N           -0.70698519211410        1.08344377531099        1.06402135061974
C            3.45637198796720       -1.29468858419100       -1.21029683930561
C            5.51856192701328        0.93434559420786       -0.78362802399678
C            6.00364193817290        3.20429930422647       -0.13530332371615
C            6.41683521401659        1.96161491477759       -0.60765768292287
H            5.87645609159554       -0.01015725942691       -1.14658336786944
H            4.32657990888280        4.37361126375792        0.50032333768458
H            6.72103356906073        3.99818478914729        0.00426410605746
H            7.45916250822889        1.79914107655847       -0.83858036164846
C           -4.04546671334843        3.86303935117725       -1.42131200717321
C           -4.77440240096690        3.10652160863218       -0.51045204133746
H           -4.75244950591543        1.66052651499727        1.03148254715249
H           -2.08665786165191        4.29760909742119       -2.17378003867396
H           -4.54832838025216        4.54076261070093       -2.09382962572714
H           -5.85063851113302        3.19460097440557       -0.48511890600828
C            3.67544593750608       -1.17257025992178       -2.72533002472567
C            4.59099881798797       -2.07992409268001       -0.53771011926869
H            2.54044145856112       -1.87244373177415       -1.06597143335792
C           -3.56377299030907       -0.60995335706240        2.09475626222683
H           -1.80505102747242        0.12088938933974        3.00637994035434
C           -3.30571314291131        1.55972679739868        3.40502048981210
H            3.81827286139268       -2.16328193946266       -3.14919546252462
H            2.80724966697898       -0.72077360200066       -3.20094638185024
H            4.54656919259002       -0.56343299094567       -2.95363877531737
H            4.33457974957569       -3.13519476377614       -0.52500201632800
H            5.53198159033847       -1.97754183513002       -1.07218086413665
H            4.72373111830554       -1.76225303306515        0.49151329060827
H           -3.01163022769509       -1.34882207456991        1.52197820612891
H           -3.90602207020020       -1.08247129347116        3.01157134813701
H           -4.42638428731907       -0.29939691625684        1.51296528185342
H           -3.55750824650554        1.04749228857758        4.33017694037421
H           -2.61845936176708        2.36984694390880        3.63966546471071
H           -4.21248958863144        1.99137361689111        2.99470628378326
