75
 energy: -118.542818656732 gnorm: 0.000641866366 xtb: 6.5.1 (b24c23e)
Si           0.09439356092479       -1.03067600590490        1.27216483050460
O           -0.39741203912518       -2.19368923721309        0.25094386016385
C           -0.00061468265358       -2.48184498996770       -1.07130198690249
C            1.39364843580947       -3.05314101056210       -1.09937246265350
H           -0.02161397213205       -1.55864872901366       -1.66094039216037
C            1.87571176895436       -3.79151025100129       -0.02787820332918
C            2.21594068236547       -2.82760909390872       -2.19623817385483
C            3.16920841121213       -4.28261526493668       -0.04493266404305
H            1.23852841700282       -3.96387963291466        0.82582066220675
C            3.50586867362585       -3.32681633584035       -2.21599266053871
H            1.84387706104827       -2.25175296245376       -3.03221361164546
C            3.98690240396937       -4.05068213286071       -1.13753331583898
H            3.53849113989324       -4.84573143208404        0.79887168795872
H            4.13946495913721       -3.14538812959156       -3.07232406113121
H            4.99769316752415       -4.43132170542248       -1.14926301854886
C           -1.03124420091280       -3.46471511441221       -1.65945469845571
C           -2.24630892337673       -2.75542556989223       -1.99915163107290
H           -0.61433412136000       -3.93319368827123       -2.55463628694978
H           -1.24092626721658       -4.23678382688831       -0.91601114664982
C           -3.20353342574362       -2.09085121502075       -2.27155382985302
H           -4.06143947160992       -1.53605812305321       -2.50995990995579
Cl           1.91875414669539       -0.65684952479691        2.16490404899532
Cl          -0.63142065135231       -2.16427155056385        2.91123653500078
O            0.65401976723096       -0.04699105880413       -0.24966215624138
O           -0.96602679253451        0.25789915620473        1.67390853224152
C            0.18528624370140        2.16181978990420        0.10866746804766
C           -1.23009904211204        1.78108633197583       -0.05504344551107
C           -3.07364369241351        0.41271212102124        0.64311481488765
C            2.44782717507930        1.45821097243161       -0.20391791760322
C            2.88936130033194        2.78003720964554        0.03928837988742
C            0.56166897708004        3.45221316490960        0.33510815354286
C            1.93712758695302        3.79636384860096        0.35027788726505
C           -1.98553527165830        2.37956241328681       -1.01864717673180
C           -3.31881021535558        1.94664447217918       -1.25720956793663
C           -3.85370160031008        0.92442041445423       -0.41521762874941
H           -0.18794962527434        4.20781078763392        0.50408110271555
C            2.35565560867193        5.10281789764240        0.61499128220561
H           -1.55150052512957        3.14813160535486       -1.63728074494649
C           -4.08121195164043        2.48685511918191       -2.29135475094858
C           -5.16025997508795        0.47169593756316       -0.70937807305206
C           -3.55755164838857       -0.50468220188337        1.73279354020908
N            1.12106901091127        1.20189628314826       -0.10422044430766
N           -1.77654434514480        0.83072573253108        0.74005241014468
C            3.30017366194149        0.32245788387909       -0.70732719797506
C            4.24656073235268        3.16343393119538       -0.01045039152403
C            3.69349183888065        5.43527175626017        0.57246452607267
C            4.63171966936534        4.45790503742287        0.25266670016604
H            4.99973787558736        2.43554793714563       -0.24555376811332
H            1.61152897871509        5.84856570519813        0.85200374435274
H            4.01085757267460        6.44530144192843        0.78095685699365
H            5.67913459647065        4.71767583316438        0.21180475879557
C           -5.36439184797018        2.03362633507537       -2.53399473314080
C           -5.88900257824341        1.01732421245198       -1.74206035868566
H           -5.59183719433172       -0.32947279508424       -0.13752465093080
H           -3.65003417239250        3.26336547755292       -2.90576258285794
H           -5.94935105916354        2.45615521100545       -3.33603991350941
H           -6.88353092956072        0.64539558276463       -1.94175984719515
C            3.71157164922085        0.59529334521102       -2.16122654373280
C            4.51540535140487       -0.03852180387047        0.15548717627665
H            2.65419255986756       -0.55828073774766       -0.71763516933692
C           -3.78739815183022       -1.94017850144678        1.24791799646503
H           -2.75633200507157       -0.56133538180713        2.47353347773659
C           -4.77587973007009        0.06415171923704        2.47158488159834
H            4.27481815338239       -0.25515203662833       -2.53658598191659
H            2.83256774275719        0.72970354395247       -2.78850845874028
H            4.32745628935524        1.48756905324174       -2.23967248363582
H            4.72331365471130       -1.09924678966914        0.03688356663320
H            5.40755281409769        0.50629989097732       -0.14042017174801
H            4.31125360882349        0.14851488382405        1.20458822162969
H           -2.88402441354942       -2.31955440130928        0.77994650692982
H           -4.01545781905614       -2.56891745856652        2.10436788472260
H           -4.59945960585149       -2.01457575102528        0.53134995096186
H           -4.95781123689192       -0.53889773580676        3.35759848616143
H           -4.58159291199705        1.08663276674556        2.78844691365673
H           -5.67670915121042        0.06076037432097        1.86717236752884
