81
 energy: -124.848812250990 gnorm: 0.000932331084 xtb: 6.5.1 (b24c23e)
Si          -0.38261163386557       -0.68939240377929       -0.52450561042006
O           -1.49960821313469       -1.79932322816156       -0.88509410952087
C           -1.90008465408723       -3.02112588895202       -0.31305646101430
C           -3.17190136357494       -2.80940713802902        0.46775548257275
H           -1.11156155984753       -3.39726553629940        0.34769457225523
C           -4.15630790687057       -1.96812546769630       -0.03456293210929
C           -3.37473814220879       -3.44647080006972        1.68398239060692
C           -5.32844728014308       -1.76628693418909        0.67160747333032
H           -3.98657483563936       -1.46331277407827       -0.97345749501708
C           -4.55020429926906       -3.24722760949101        2.38694030334515
H           -2.60699317105434       -4.09459390568195        2.08154167868423
C           -5.52869294474385       -2.40724623255677        1.88257524883673
H           -6.08924296077501       -1.11066530391630        0.27312760780876
H           -4.70079362264844       -3.74585336268026        3.33331930238219
H           -6.44462634015430       -2.25138104824899        2.43398704945935
C           -2.12572743327969       -4.02777701526841       -1.45622349928118
C           -0.88210189672745       -4.30361628012003       -2.14169349395704
H           -2.53648955233405       -4.95186014563365       -1.04120710863446
H           -2.84321715724347       -3.60108862697578       -2.16149032774350
C            0.16736117229079       -4.49590865457439       -2.68304277948635
H            1.07345611211023       -4.68203713267318       -3.17667623918616
Cl          -1.29098017086630        0.50327472628922       -2.06880865629483
Cl           0.68348746538286       -1.95749752108898        0.92616568498260
O           -0.61433560921605        0.41994036332866        0.75438439832708
O            1.09614686156822       -0.12356289453824       -1.20110014863572
C            0.80994204872723        2.12703401817176        0.20525915951353
C            1.93400382523332        1.19669697501489        0.47096270942523
C            3.22497889278911       -0.66943771136210       -0.30814539694600
C           -1.54475508141307        2.56309601308502        0.36650510370712
C           -1.34084844000552        3.78957588438124       -0.32504387699680
C            1.06710666063558        3.38143210269994       -0.24715626254098
C           -0.01295082730183        4.23464831323547       -0.59555538113708
C            2.80336331403359        1.44185201135502        1.48484012033401
C            3.82730198883964        0.49931206294264        1.77149374333378
C            4.00569728867052       -0.59881052030224        0.87848276568278
H            2.08342823771088        3.69654034760365       -0.41904394153854
C            0.22276927777226        5.46666328344408       -1.20811039487298
H            2.66661339545679        2.30270165681738        2.11889756407504
C            4.62677547830738        0.63723851733620        2.90734123856373
C            4.94919097318366       -1.57646996797559        1.26782539734262
C            3.60560479269278       -1.50991074386477       -1.51947975941103
N           -0.46322919017642        1.74685187799869        0.48630486355261
N            2.14246975319684        0.15174656551349       -0.37201388497787
C           -2.86013364832983        2.19656758153922        1.04410981390819
C           -2.38421550832383        4.61528254940568       -0.80180535459284
C           -0.82537759708995        6.26880755428820       -1.60558916867523
C           -2.12826359227117        5.81722802071251       -1.42004283784770
H           -3.40571874949205        4.29126844435874       -0.73225686349984
H            1.24409310331461        5.77287277878204       -1.37926878049413
H           -0.63929088275866        7.22128930974997       -2.07698171806573
H           -2.95527736173865        6.41531970431565       -1.77316014015395
C            5.58106366689737       -0.30807180291581        3.21735528230795
C            5.71272086812701       -1.42827980037795        2.40246266990319
H            5.05003632494059       -2.48689686130606        0.70529195367614
H            4.47272080047121        1.49264205633779        3.54835281034319
H            6.19907226640897       -0.19589423378130        4.09464164466934
H            6.42052474070477       -2.20004466431308        2.66677176023673
C           -3.33207183060693        3.40694499276739        1.87847734224889
C           -3.91638185013363        1.78010485695540        0.00520449150216
C           -2.75663711506413        1.04303663210577        2.05714070600287
C            3.25868604500681       -2.99095938000881       -1.30079807144002
C            2.91325564990753       -1.06988353472087       -2.82159806132845
C            5.11234836480017       -1.31651604867456       -1.79457125510194
H           -4.33483573699652        3.21178783870824        2.25088090386022
H           -2.67111033956055        3.54137279855600        2.73284088290377
H           -3.34915975262410        4.33656966445005        1.32294746902210
H           -4.73733867770637        1.27858376771163        0.51206748471623
H           -4.32207619583520        2.62315648998679       -0.54338713549715
H           -3.47239205688660        1.09488240375533       -0.71133824135246
H            2.19190782134358       -3.09537148727124       -1.11676297438053
H            3.51942252658503       -3.55560626704332       -2.19364744204223
H            3.78307060507656       -3.42304188642619       -0.45494089004147
H            5.41334999630497       -1.97415537020527       -2.60666527565846
H            5.29713281806605       -0.28885837582087       -2.10254977295505
H            5.74252225914449       -1.52542945994951       -0.93937861187335
H           -3.65403200033413        1.04905478904465        2.67352118870533
H           -2.70024919204211        0.07465701696076        1.57146048464991
H           -1.89741425324843        1.15628716070076        2.71371318367731
H            1.88025455849505       -1.39762786718937       -2.86915779580218
H            2.93902572194514        0.01069884424087       -2.94300587502834
H            3.44343695149418       -1.51525308642354       -3.66124490488958
