81
 energy: -124.850287985438 gnorm: 0.000394440662 xtb: 6.5.1 (b24c23e)
Si          -0.25262850475471       -0.87910485549756       -0.08519017716751
O           -0.94951557037422       -2.32575200486356       -0.27597864687438
C           -2.10327679996520       -2.74004773101589       -0.96454660495957
C           -3.34472654106187       -2.35958271492314       -0.20022593492448
H           -2.12425550768337       -2.27645165393477       -1.95762352096033
C           -3.32512223800873       -2.33498172661494        1.18773817703489
C           -4.51801237404204       -2.04287161815095       -0.87124949868970
C           -4.46350729062858       -1.99420616087216        1.89642158917484
H           -2.40791800167267       -2.57365686374559        1.70544007465957
C           -5.65733768008977       -1.70789539212395       -0.16145416401177
H           -4.53263398276130       -2.04947708834717       -1.95142720095618
C           -5.63251766455760       -1.68314768181613        1.22304810269151
H           -4.43687468831690       -1.97320913626520        2.97628827741484
H           -6.56561799143949       -1.45966191865573       -0.69073465832114
H           -6.52267145550362       -1.41888850379145        1.77550827806250
C           -2.01210362270138       -4.26915653343960       -1.12022623434514
C           -0.87749942044120       -4.62426311485258       -1.94477386776553
H           -2.93583324150500       -4.63819659446821       -1.57325388752754
H           -1.89495245661684       -4.71341524618321       -0.12864918682324
C            0.07655957155996       -4.86451553544719       -2.62559341407659
H            0.90667852317359       -5.10022979491080       -3.22153980533863
Cl          -1.54834744139365        0.13845353199159       -1.55524917259762
Cl           0.96497480976874       -1.83290688548917        1.42094411348614
O           -0.44275554176126        0.39043307653869        1.05732536691564
O            1.05055809678835       -0.32078829814225       -1.03489592790735
C            0.80952982073124        2.07318885376690        0.13167588030918
C            2.00093235674774        1.22344783625817        0.37157003546413
C            3.26170187682508       -0.70220200758074       -0.29975544285313
C           -1.52170004143630        2.44456321304610        0.55897255275853
C           -1.48151115036219        3.56210178091405       -0.32030130222575
C            0.93675422641102        3.26464330258725       -0.50726760682197
C           -0.22683112684504        4.01505639392291       -0.82533169866704
C            2.95946363022789        1.60458762948313        1.25496406687351
C            4.01830551256564        0.70802576303449        1.56348429133163
C            4.12493851953050       -0.49777731224424        0.80963736058729
H            1.90491804472195        3.59546309373765       -0.84637979528324
C           -0.14554889243933        5.15292421040237       -1.62975737880048
H            2.86183456472483        2.53350280725074        1.79289878899332
C            4.90971909044026        0.97952246968360        2.60291004107520
C            5.07151855282504       -1.44386511523698        1.26002690816247
C            3.54774385097802       -1.66253610363637       -1.44404769509482
N           -0.39588076582920        1.68249748750881        0.62249693942048
N            2.16430301505146        0.09772675091877       -0.36833703513102
C           -2.68953175963201        2.15202510768102        1.49237392298151
C           -2.62594000134853        4.25954998887284       -0.76819433170451
C           -1.28265906655614        5.84289229282074       -1.99207977301345
C           -2.52285560535783        5.36732625906451       -1.57738806293298
H           -3.60854875606067        3.89911266743375       -0.52421359190859
H            0.82544540313476        5.47361137590048       -1.97694390522649
H           -1.21527845660319        6.72354817534016       -2.61181854735417
H           -3.42236075236735        5.86986689112396       -1.90107582106189
C            5.87513579300226        0.06271847875994        2.95987994920468
C            5.92208493413964       -1.16416235782932        2.30381350392508
H            5.09500837098552       -2.42876834325852        0.82921146822598
H            4.81524450807918        1.91319743567595        3.13731519810973
H            6.56369026890154        0.27776996478136        3.76236339894298
H            6.63047510460243       -1.91351788082045        2.62464405307674
C           -3.11824701365941        3.47178823534601        2.16830389717507
C           -3.86236242133227        1.50526218690048        0.73796015681668
C           -2.32945650807732        1.21420657807222        2.65736993159241
C            3.12792911593846       -3.09418788525873       -1.07913294054957
C            2.82242123817781       -1.27151073156170       -2.74471596490880
C            5.04842124570149       -1.59159054662357       -1.79500215567874
H           -4.00447314914710        3.28904397001410        2.77126244521739
H           -2.32391289977021        3.82129474914907        2.82534194763781
H           -3.34377906575855        4.26564028962573        1.46739503510364
H           -4.61741489255534        1.18095397134989        1.45007527598008
H           -4.32843124590886        2.18133505923367        0.02976563954020
H           -3.51432860494264        0.63628481051214        0.18698014741170
H            2.05128085620116       -3.14178422022301       -0.93739270492891
H            3.40356980282824       -3.77031875766859       -1.88514329995425
H            3.59499154736809       -3.43368038769423       -0.16076463113313
H            5.24816774977466       -2.25259271244664       -2.63508047324074
H            5.30971732987167       -0.57709837975409       -2.09041852169345
H            5.70010018514661       -1.88129761748223       -0.98145783983597
H           -1.38342139977359        1.49014786435593        3.11754034303263
H           -3.10854097734805        1.29132140762503        3.41340221855968
H           -2.27471443122180        0.17790871049188        2.34299439406873
H            1.77040474298818       -1.53308600817783       -2.72336127067466
H            2.91128938350870       -0.20456309541462       -2.93969606215869
H            3.28043935618840       -1.80541315470908       -3.57474301498108
