81
 energy: -124.852088321593 gnorm: 0.000440934012 xtb: 6.5.1 (b24c23e)
Si          -0.28601619817457        1.00831758549024        1.13040133195655
O            0.88941700272211        1.62750313421835        0.20393129061096
C            1.89805344551223        2.58081190560615        0.40283855161539
C            3.15928719991291        2.07677946146904       -0.25269770353527
H            2.05693669373785        2.73163616309874        1.47803363996680
C            3.07635947388321        1.37502393729338       -1.44853980160860
C            4.40368587352606        2.30863431102219        0.31606863752965
C            4.22201362807772        0.91256336087684       -2.06925143025549
H            2.10408478112742        1.18353079238353       -1.87663187222302
C            5.55036300611079        1.84647564483025       -0.30680093760950
H            4.47199682484875        2.84495193357189        1.25138903318487
C            5.46191599120943        1.14912962377009       -1.49986138277415
H            4.14708884083316        0.36579207564235       -2.99786938854637
H            6.51565749375973        2.02829907873910        0.14294362158871
H            6.35781271794684        0.78853933566882       -1.98384781164145
C            1.45902459730308        3.91588953820753       -0.23436247012523
C            0.21519163838751        4.36428495839844        0.35317774003675
H            2.24244880457128        4.66127479636103       -0.07894804781197
H            1.31787356133140        3.76166217712917       -1.30760190023593
C           -0.83150385825993        4.66552012211269        0.84851939636292
H           -1.74008150818735        4.94914497707927        1.28892805901650
Cl           0.60676064219990        1.57235123881248        3.03836546592111
Cl          -2.16542607507127        1.49686023501941        1.87611442004511
O           -1.02038407395956        0.66611037729070       -0.50000286611557
O           -0.06783415452827       -0.65219171823462        1.48637498223718
C           -1.71160386367323       -1.49062710782979       -0.45588540763852
C           -0.26423238966932       -1.79005109516119       -0.50995219306323
C            1.84854090666944       -1.74627595285066        0.61571751966131
C           -3.32870604985331        0.23472974960960       -0.81748661072241
C           -4.35577749794324       -0.70825774792286       -0.51618836779395
C           -2.65804244079709       -2.45928391990249       -0.36682840221778
C           -4.02384112976107       -2.07974746973466       -0.30634587912983
C            0.27425167132153       -2.39149002107105       -1.60415509339360
C            1.68888110878898       -2.47551223976281       -1.72713291070543
C            2.48441359326695       -2.08731975898286       -0.60868734390478
H           -2.37293345116494       -3.49526394715025       -0.28563057948384
C           -5.01822652922996       -3.03038264479920       -0.05939595600328
H           -0.36157063762347       -2.71135666933778       -2.41346716049446
C            2.28610570691252       -2.89939395088108       -2.91430051844883
C            3.88188427177008       -2.04931045761056       -0.80878718314606
C            2.52771489787889       -1.85238193817948        1.97259842946273
N           -2.05566030666002       -0.18524727457614       -0.61052862821551
N            0.51495218052102       -1.45235491577542        0.54403875551387
C           -3.60073656235067        1.56072703804827       -1.52411398947128
C           -5.72056526752756       -0.36907691247469       -0.38464811430234
C           -6.34242570899567       -2.66141373099186        0.02208014853062
C           -6.68020504538394       -1.31900702665899       -0.12237259734199
H           -6.02914107675787        0.65786922657839       -0.44315441409239
H           -4.72492271141619       -4.06042091639580        0.07875261187551
H           -7.10649949298045       -3.39877922315993        0.21335586221674
H           -7.71124623820263       -1.01404824637882       -0.02207147478899
C            3.65987503332624       -2.91353533604105       -3.04693674080683
C            4.44751993224904       -2.45826393854302       -1.99517079988382
H            4.52578356135842       -1.64462178255977       -0.04841039267320
H            1.65292970855682       -3.20558310573446       -3.73400773085772
H            4.11650839621212       -3.24865804511484       -3.96548927872223
H            5.52043394911014       -2.41444868226454       -2.10990614458695
C           -4.50918734741600        1.25697181815415       -2.73565878113392
C           -4.24752002488282        2.61205090858212       -0.60805854384524
C           -2.34215016275566        2.21511864525272       -2.11565157067503
C            3.39234575476971       -0.61849571155399        2.27133750251289
C            1.52502583188302       -2.01444653746325        3.12736692442280
C            3.37541116631820       -3.14196619483426        1.99647709442810
H           -4.76831732539118        2.19090910431696       -3.22837495803732
H           -3.97738304345223        0.63079388388271       -3.44985473912422
H           -5.42761869725514        0.74963760596362       -2.46442267333054
H           -4.25107467243790        3.57123189031953       -1.12058887720444
H           -5.27106185731390        2.37371031005062       -0.34184525975080
H           -3.67129636142190        2.70495507062417        0.30677486386530
H            2.75709173438394        0.25523810946287        2.38413058189596
H            3.92809546195937       -0.76986494516037        3.20529561583595
H            4.11224708133502       -0.41372804334293        1.48488649830558
H            3.84198403024735       -3.24052801070341        2.97360217489637
H            2.73483544765358       -4.00728565975582        1.83586978125956
H            4.15787197367685       -3.16057452827020        1.24851693867884
H           -2.65502581607912        3.00631650160933       -2.79484823458560
H           -1.71977584772637        2.65935185761186       -1.34604666121679
H           -1.74609055101753        1.50302726320625       -2.68106323283949
H            1.03646478971018       -1.08039193315624        3.37815261338084
H            0.76508849122618       -2.75607066154748        2.88877881633172
H            2.06207507720100       -2.35134174549754        4.01109715296708
