81
 energy: -124.849795362634 gnorm: 0.000827196644 xtb: 6.5.1 (b24c23e)
Si          -0.67582183608063       -0.55196553450740       -0.71496349934567
O           -0.85630448829365       -1.70249254295399        0.41006062950078
C           -1.29361326646130       -3.03634953922380        0.29800191134943
C           -2.75360248915033       -3.09111818710666       -0.07027783202376
H           -0.70346506202814       -3.54571499353460       -0.47354800057308
C           -3.63744255663150       -2.18491006809640        0.49938158487867
C           -3.22642419669049       -4.02181484839632       -0.98355024396040
C           -4.97569381853837       -2.19904027342473        0.15253299135047
H           -3.26167026587126       -1.45641853542548        1.20274589354535
C           -4.56753949084220       -4.04199511502248       -1.32341746312099
H           -2.53905855925276       -4.71804261446051       -1.44071209349819
C           -5.44324638895892       -3.13002356751933       -0.75922659893055
H           -5.65305793890121       -1.48068708620593        0.59100843291804
H           -4.92796774490986       -4.76453519399744       -2.04064403663485
H           -6.48739841160052       -3.14017886724610       -1.03530366138119
C           -1.04816134574480       -3.70836328898169        1.66113449660998
C            0.33991207624628       -3.58439013294760        2.05100020023416
H           -1.32982665331911       -4.76201097233750        1.59421856887023
H           -1.67360551318996       -3.21929965478370        2.41218409490432
C            1.49029312188598       -3.44736022046686        2.34988016629224
H            2.49293935863832       -3.32876315232524        2.63442354295119
Cl          -2.08944773952464        0.71567631226689       -1.57486861055479
Cl          -0.78799007421569       -1.87733329828297       -2.44662537429883
O           -0.55030832424585        0.51766075661069        0.74231913899436
O            0.88475050026218       -0.11849828628590       -1.26527846035243
C            0.86871930844234        2.20108017706726        0.14389641683878
C            1.92935018988412        1.19267198626651        0.34139720718490
C            2.93362041351084       -0.85948175363341       -0.36313053593890
C           -1.40221669109921        2.71523211230314        0.67178850215438
C           -1.26911652716473        3.93443381741563       -0.05068263042071
C            1.11296474100734        3.45873668339722       -0.30879359706958
C            0.01594247512860        4.33590842127720       -0.51985323486183
C            2.86969040004450        1.37268273221446        1.31008750980690
C            3.73468696674097        0.29738123958686        1.65031641195263
C            3.70786973384551       -0.86730507794711        0.82891561026216
H            2.11196556493125        3.75652002124734       -0.58167624450138
C            0.18175536706717        5.55882854571694       -1.17559026549857
H            2.88359381224549        2.28348529157261        1.88580320310911
C            4.56104435874888        0.35621127638306        2.77349705203709
C            4.44441133206543       -1.98277603214670        1.28248084331514
C            3.23681444948057       -1.72836254296542       -1.57434752257569
N           -0.37227923932368        1.83928775554892        0.55539620439781
N            1.94925390216788        0.08644490737863       -0.43670893568293
C           -2.50670661266451        2.44756999022239        1.68576614014687
C           -2.35835358938640        4.76666811154040       -0.38399409689283
C           -0.89951558774934        6.37394190661840       -1.42794259619930
C           -2.17327977926694        5.95287714475209       -1.05462199753674
H           -3.36230232849548        4.44610533927934       -0.16972751299055
H            1.17185250104189        5.84374073150359       -1.49917043531164
H           -0.76612446116887        7.31645572452263       -1.93611278545761
H           -3.03040110016189        6.56097812072515       -1.30274888912066
C            5.32624042170011       -0.73124106378330        3.14297059114203
C            5.23419207418542       -1.90903263025546        2.40846344428652
H            4.34935612417614       -2.92870170184759        0.77761900800577
H            4.57739440532895        1.26259184273503        3.36027687006588
H            5.96574508779534       -0.67977431273685        4.01054826695560
H            5.78280344560684       -2.78288362962349        2.72922793525096
C           -2.78182082306086        3.75326070448416        2.46136080045885
C           -3.79670995398009        1.93018931020688        1.03583041013106
C           -2.06835943747014        1.43112002242229        2.75357435358920
C            2.55451138952497       -3.09888470757259       -1.45528430065124
C            2.77858905335262       -1.06957710267425       -2.88771423476937
C            4.76504880523492       -1.88272326988158       -1.72004406686271
H           -3.45792108443981        3.53925399075781        3.28578270959883
H           -1.85554232432868        4.14766698803275        2.87505179657350
H           -3.23500756175958        4.52540183783428        1.85249331142380
H           -4.56909810019413        1.82904760274966        1.79520101524214
H           -4.15628748814130        2.59666613440043        0.25881526504959
H           -3.62177927540019        0.96130397471399        0.57923755501575
H            1.47744979310500       -2.97696992063268       -1.52450421724911
H            2.87676850711196       -3.73966811616526       -2.27227091733026
H            2.78100712069440       -3.58824030934086       -0.51217994963818
H            4.97957136531151       -2.38901312599252       -2.65800215065265
H            5.23764193260355       -0.90272024209024       -1.74668928772211
H            5.22452637427916       -2.45709427019721       -0.92638542527269
H           -2.82185688685056        1.39847858639408        3.53763234919127
H           -1.95693206837376        0.43236813064283        2.34814954610118
H           -1.12126885210473        1.72488374499859        3.20296794263785
H            1.70589508116156       -1.13100186783548       -3.02566232525848
H            3.08045218218168       -0.02444768943437       -2.92570153048350
H            3.24427920028036       -1.58791563541859       -3.72238936367098
