81
 energy: -124.771204388036 gnorm: 0.000653275072 xtb: 6.5.1 (b24c23e)
Si          -0.40750314655167        1.66823316681132        0.44227451412055
O            1.09348506047889        1.24677341774911       -0.47409119961092
C            2.32475511955119        1.41677061058787       -0.19938201698382
C            3.35016078143214        0.96020114520107       -1.06302818855926
H            2.59331739663711        1.98447497577846        0.68735404843128
C            3.03624748988924        0.26592551647961       -2.24962544278500
C            4.70549612882639        1.15884039757488       -0.73829779209997
C            4.03633663703550       -0.20559760373124       -3.06575078651301
H            1.99556722131709        0.13351485050604       -2.50208417384235
C            5.69627220657491        0.68126308419873       -1.56491568750268
H            4.95531194800397        1.70233267608852        0.16151238924734
C            5.36964559040937       -0.01043719561598       -2.72549970004855
H            3.78726056162687       -0.73300137551407       -3.97488891780842
H            6.73420632229516        0.84133258736777       -1.31119287323163
H            6.15201582976501       -0.38523094851784       -3.36808066953493
C            1.91363476036136        4.70268092863860        1.50673940888686
C            1.12886411477417        3.69575781721586        1.73662104775695
H            2.98764921311447        4.60571643692991        1.47253251419717
H            1.51458542957380        5.69073887673249        1.34781203602600
C            0.33964606633064        2.68491394815513        1.89224575705906
H            0.01769803882491        2.40935513843590        2.88675130548656
Cl          -2.43377759010972        1.67633279265647        1.36200481870457
Cl          -0.70639024488283        3.33395345016112       -0.86944632611057
O           -1.11754142701136        0.62370447502950       -0.96784857852167
O           -0.16453254075379        0.09906266420650        1.41946719204008
C           -1.52170440733275       -1.44676150324225       -0.17151744650989
C           -0.04895158581973       -1.58302646681563       -0.11238454052854
C            1.86570971443375       -1.07288495857844        1.21554857868747
C           -3.32135230824764       -0.07196085864884       -0.88790613993595
C           -4.21687010073804       -0.92545331064283       -0.17732481124700
C           -2.35459657044835       -2.42363347375956        0.27558604382163
C           -3.73597962013339       -2.15000398829061        0.36334270859395
C            0.65175908763495       -2.43411557636901       -0.90762256337676
C            2.06782591289464       -2.45903706899852       -0.80997104027322
C            2.68054461861134       -1.75573069880919        0.26578150330795
H           -1.95512242719365       -3.35671945124605        0.64036523564277
C           -4.61742327583517       -3.03829376712339        1.00387852595444
H            0.14442038814101       -3.03457902210008       -1.64508887544493
C            2.84944959020780       -3.17197253735886       -1.72515011062504
C            4.09000759571705       -1.73720579700726        0.29830924353185
C            2.26386828592845       -0.88185440372674        2.67976240616371
N           -2.01607786580586       -0.29494966608712       -0.70194696979448
N            0.57250589100610       -0.86149848941754        0.85388484825325
C           -3.78552206714384        0.91594151019235       -1.94946317981627
C           -5.56069477424069       -0.58788530771583        0.09222522221483
C           -5.93288326330456       -2.70481455793866        1.18171579939730
C           -6.39022414164732       -1.45249257788928        0.75672028370122
H           -5.92411999220278        0.39216296203866       -0.16054034451668
H           -4.22653209678650       -3.97216046900459        1.37979086350563
H           -6.60806260090089       -3.38362115897121        1.67998680426869
H           -7.40778742315889       -1.16030149921832        0.96734418680499
C            4.22124155555177       -3.17869372819448       -1.62438141043099
C            4.83666284253114       -2.43677564793231       -0.61956177675412
H            4.59968705431491       -1.12494893593469        1.02096460108616
H            2.35381045262694       -3.70953020600893       -2.51999272675815
H            4.81823434852717       -3.73460723418897       -2.33063060914429
H            5.91403804924907       -2.40074171609237       -0.56471372633652
C           -4.94459211442866        0.26157966856561       -2.73436521314516
C           -4.21953831427787        2.26074069539039       -1.35252482227793
C           -2.69836092546450        1.19531292179847       -3.00083919463999
C            2.99720076440879        0.43822725158893        2.94175106122368
C            1.03106632924339       -0.94104621659160        3.59865226208669
C            3.15178728231215       -2.06603134562227        3.11888281785350
H           -5.18369271065914        0.89035281960698       -3.58825383803417
H           -4.64364678092532       -0.71579368720088       -3.10868022416891
H           -5.85020121599809        0.13762306441625       -2.15425795626296
H           -4.70012663210440        2.85677505562167       -2.12421606489320
H           -4.90100625073275        2.14103907786415       -0.51707092010988
H           -3.34783757718689        2.79891549451598       -0.99286101936980
H            2.32548201346237        1.27887615619373        2.78540839629994
H            3.33967079241264        0.46341717976552        3.97405324883261
H            3.85932833937197        0.54920418590196        2.28922230598135
H            3.17630451083570       -2.10255699825841        4.20544776225159
H            2.74543941963351       -3.00832537670538        2.75774107963408
H            4.17495587196866       -1.98140912831316        2.77396833610708
H           -3.15534644651481        1.71447860367920       -3.83981562757687
H           -1.91117386547753        1.83179863863892       -2.61296648487760
H           -2.25970076618287        0.27001789228842       -3.37150101938832
H            0.35602549561272       -0.10866611179184        3.43863068295847
H            0.48004336865878       -1.86703597549342        3.44163750098331
H            1.36141757808607       -0.91119709390105        4.63438966828564
