81
 energy: -124.850615807927 gnorm: 0.000461758212 xtb: 6.5.1 (b24c23e)
Si           0.35827921283426       -1.09818876573271       -0.31925894368654
O            1.82785788938019       -0.52605613860130        0.09216138381425
C            2.87926982872621       -1.01821897809298        0.89679814594690
C            3.38051655724332       -2.36280497455792        0.41031222277629
H            3.68714420456190       -0.28154016917120        0.74794654362901
C            3.43060978632054       -2.59400120953870       -0.95995533233366
C            3.81801034814533       -3.36345111917993        1.26757939387107
C            3.88277291013973       -3.79867541261410       -1.46301951422677
H            3.08616139009217       -1.83083639222618       -1.64152113646788
C            4.27861750217209       -4.56743718438304        0.76360764754001
H            3.78957965356571       -3.22741205176406        2.33664898783817
C            4.31090584996104       -4.79224282961580       -0.60050708314697
H            3.89549176888040       -3.96006983328719       -2.53061430241035
H            4.60501437936644       -5.33808243634032        1.44654957687647
H            4.66145491877143       -5.73690107584832       -0.98902165657807
C            2.48105373818144       -0.98741693638890        2.38012031277737
C            2.02372708212387        0.33076865227325        2.76067850047683
H            3.34859914289700       -1.24342084592442        2.99195443489423
H            1.68356986135151       -1.71299311734664        2.55121691534138
C            1.66378885947060        1.43043061410568        3.06549534581810
H            1.34859327921487        2.38708977130018        3.35609352345817
Cl          -0.14280535916214       -2.01842148603301       -2.10068291037041
Cl           0.49641122258071       -3.01185892375799        0.71820547293591
O           -0.84730401884239       -0.65146267849289        0.81680033518380
O            0.09156150266774        0.40829117991093       -1.28471260925528
C           -1.96451043551385        1.23789648425785        0.06258059140081
C           -0.69652121602805        1.98580957234979        0.15501888902963
C            1.43166672950165        2.31733164767377       -0.86644309266103
C           -3.18028229488349       -0.77774312970134        0.48136719278274
C           -4.23899130905432       -0.28313412051968       -0.32994987304689
C           -3.07051322966422        1.85286063282960       -0.44145404387171
C           -4.22469558261748        1.08180611076150       -0.74019865564515
C           -0.56618569207153        3.09384798345623        0.93412775758154
C            0.69689940888943        3.73443830867685        1.00882703298176
C            1.72864380907181        3.29205350779086        0.13077220277187
H           -3.02964518768412        2.89499011972830       -0.71282113973270
C           -5.29995610339040        1.62589002805301       -1.44469162189605
H           -1.38717172540456        3.42536074455500        1.54839074798524
C            0.93620110902220        4.75853535185451        1.93044894072838
C            3.01074195452431        3.84495907439680        0.33208591990274
C            2.21447876527094        2.19078801304151       -2.16785480285364
N           -2.02212297371079       -0.05032843225019        0.47750494253674
N            0.29701362968235        1.59940980896723       -0.68090704275846
C           -3.33653714134048       -1.95278177622967        1.43456884956484
C           -5.31664243172910       -1.07157744326473       -0.78799940123745
C           -6.37314637014921        0.83911979790598       -1.80739202240248
C           -6.35401855924811       -0.51871473175189       -1.50421249469867
H           -5.31060030261586       -2.13558935381350       -0.62933883367713
H           -5.26743474354971        2.67033605088635       -1.71714822762707
H           -7.20399794325338        1.26431132092773       -2.34873855492167
H           -7.16056142065147       -1.15274784144143       -1.84131383916253
C            2.19019805626931        5.31726293356992        2.05319812381566
C            3.23112496437549        4.82820371267613        1.27014971802267
H            3.85437586850238        3.46335680692753       -0.21508018226257
H            0.12328655586341        5.08895079323511        2.56091186007846
H            2.37058218871105        6.10487527038075        2.76853105624213
H            4.22848614029126        5.22074922671240        1.40145071419266
C           -4.73515298606643       -1.88304708328052        2.08294484066903
C           -3.13213643659881       -3.29277335423670        0.71231329588054
C           -2.34959648863914       -1.89081266983106        2.61309425873791
C            3.50160844009354        1.37411978557352       -1.98745224836160
C            1.39858854315658        1.52769037350757       -3.29029754073284
C            2.53096334415111        3.60874096310125       -2.68730641897298
H           -4.83942675270066       -2.70768232047528        2.78374693089854
H           -4.83980009290856       -0.95072533539670        2.63495210062046
H           -5.54949783301290       -1.94502802175196        1.37248957844873
H           -3.28414677103001       -4.10827541318075        1.41479778307824
H           -3.81585424587930       -3.42036942637892       -0.12116272031107
H           -2.11688640706454       -3.35952088622040        0.33265152315768
H            4.21438066968041        1.85994081764596       -1.32835832467321
H            3.25519490932499        0.40435347121561       -1.56847044935702
H            3.97722906689994        1.22635918036586       -2.95432200241102
H            3.09532306235667        3.52852712749826       -3.61331379168559
H            1.60470310407204        4.14051771820358       -2.89759222766411
H            3.10913192695893        4.20496954038879       -1.99175062475743
H           -2.70102050274042       -2.55682298853549        3.39760336496282
H           -1.35666378355466       -2.21661732086161        2.32750057952502
H           -2.28738363115337       -0.88532647716060        3.02465825425549
H            1.30010779579779        0.45729805476413       -3.15093297730148
H            0.40154096341342        1.95734334070259       -3.36020272524336
H            1.90701007738337        1.69768579300970       -4.23714242462435
