61
 energy: -107.993957016861 gnorm: 0.000899967080 xtb: 6.5.1 (b24c23e)
Si           0.39722910520758       -1.27246608110289       -0.10678620755708
O            1.64344098784392       -0.27933020055844        0.21981529254374
C            2.78809740562693       -0.47304731181766        1.01285364821431
C            3.77574265520629       -1.41161576738408        0.36904477237259
H            2.48355777967185       -0.88175029523913        1.98399549309886
C            3.82070284980239       -1.55812489472291       -1.00907592009260
C            4.66842641727519       -2.12286835245679        1.15977772151840
C            4.74186252635515       -2.41120380946978       -1.59054757823832
H            3.11691629201584       -1.01271587447301       -1.61908248170997
C            5.59475093857395       -2.96801182129065        0.57703022006520
H            4.62596329216249       -2.02132334673688        2.23464547365109
C            5.63328208919335       -3.11431058935743       -0.79962044722590
H            4.76000166376166       -2.53015622647379       -2.66401006625991
H            6.28284473380158       -3.52119214405693        1.19923217827301
H            6.35248908236056       -3.78051368903411       -1.25344799223345
C            3.43272227568651        0.91227019837196        1.21871788044754
C            2.53268334749704        1.79688211692948        1.92503513827175
H            4.35754855676146        0.79197359892372        1.78776915088384
H            3.66739470021602        1.33577739631677        0.23839222993342
C            1.74902142112709        2.49475101465208        2.50016667913201
H            1.08397871612404        3.12022746768718        3.01606434091438
Cl           0.23505990193006       -2.49997147716240       -1.73636086146526
Cl           0.89678252754987       -2.82723651496337        1.26797448338525
O           -0.95190730723704       -0.91691718624738        0.90031842443907
O           -0.21347352118740        0.03597974837883       -1.28450808797701
C           -2.41880753726350        0.71696988945951        0.05681340461626
C           -1.30193269774424        1.66568642944499       -0.05519605369018
C            0.78006699894076        2.12641596117914       -1.08201533571182
C           -3.14067710813699       -1.52138877431121        0.42819128351863
C           -4.47281169628335       -1.17494948112042        0.09721391790379
C           -3.69173000966718        1.10252186614424       -0.26357072491414
C           -4.76886192279048        0.17354454329754       -0.23645093006353
C           -1.35594120710504        2.92243647804941        0.48653728298663
C           -0.29014022401615        3.83806714191831        0.29369339565642
C            0.79818995894251        3.42858606603056       -0.51995498128235
H           -3.87238982323322        2.11831222539812       -0.57563801684025
C           -6.08276268857602        0.52938689271431       -0.54787759004967
H           -2.20758781267315        3.20485765792143        1.08408760539729
C           -0.27499723522304        5.11547736733264        0.86469801299153
C            1.86369884734975        4.31670324190944       -0.73869891586643
C            1.78726744940918        1.67232918470906       -1.93991691648446
N           -2.17544620057568       -0.55834644807590        0.44199627722558
N           -0.24341450956472        1.28715923527790       -0.80974931934760
C           -2.74609170060737       -2.81824592003409        0.76192239658541
C           -5.50850193022737       -2.12538029060424        0.09701406520543
C           -7.08554165276555       -0.41966821358824       -0.53366242219663
C           -6.79422223120116       -1.74465157426414       -0.21401499288940
H           -5.27434414033461       -3.14867826976478        0.34611794073841
H           -6.30272781100447        1.55589321425385       -0.80070320938211
H           -8.09857242459198       -0.13569788439223       -0.77442326602034
H           -7.58532558902472       -2.47899359139319       -0.21051219239012
C            0.78664330954320        5.96638189829584        0.64260895729595
C            1.85381250418290        5.56501898090146       -0.15968661360490
H            2.68718092920159        4.00057410835951       -1.35999506689536
H           -1.10500920551317        5.42263667504806        1.48387547990332
H            0.79322608755334        6.94829680217842        1.09098087068602
H            2.67913009875748        6.24036399923499       -0.32665902621963
C           -2.34086674116984       -3.91763018644330        1.04469092009722
H           -1.98706689725699       -4.87504714045264        1.28552777444698
C            2.64041279720296        1.29235959230794       -2.70103029443159
H            3.38707557813742        0.95554736436662       -3.35673720135333
