61
 energy: -107.991741650982 gnorm: 0.000576631593 xtb: 6.5.1 (b24c23e)
Si           0.29386606117161       -1.53740738494897        1.17342535131920
O           -0.70329402174224       -2.47413873200326        0.31286877479621
C           -1.05140671667565       -2.46000128447986       -1.05791349697008
C           -2.09649483179409       -1.39932140333765       -1.28988145546864
H           -0.15954241293374       -2.23959616329828       -1.65150176333089
C           -3.26302831358628       -1.40562628264517       -0.53472301039079
C           -1.89703455751211       -0.38820649326495       -2.21918729373981
C           -4.22598609386148       -0.43185707432649       -0.72647806527597
H           -3.40344070862279       -2.16914165399623        0.21487717371426
C           -2.85733678299604        0.59174308538352       -2.40413315430588
H           -0.98338015848065       -0.37008904313285       -2.79578385238783
C           -4.02758113911337        0.56658607464043       -1.66520959323071
H           -5.13175595399776       -0.44986212431339       -0.13904311970361
H           -2.69283971267573        1.37771839376592       -3.12702202879270
H           -4.77812752467997        1.32852310758380       -1.81471998253459
C           -1.57029352550800       -3.85974756249979       -1.42606140017886
C           -0.47960207496743       -4.80957439831831       -1.47369096782705
H           -2.06361071636322       -3.81258037599329       -2.40097452496129
H           -2.29354269950070       -4.17821499501237       -0.67273069166701
C            0.44589496810451       -5.56695970385507       -1.50750366514844
H            1.24155400377671       -6.24981469681196       -1.53429494724685
Cl          -0.35425245197667       -2.41630770999650        2.95398846373392
Cl           2.30405782554785       -1.87634819653773        1.49024534815642
O            0.73775049983091       -0.62208073411583       -0.48623092919973
O           -0.09577266520157        0.01727309219913        1.79141997489319
C            1.38475031771053        1.53941830443967       -0.00989219119545
C           -0.03330029928886        1.81380338057793        0.26582047681301
C           -2.05566071042078        1.18137340940231        1.35255414689424
C            2.93452715603198       -0.02593893636753       -0.88335551223009
C            3.98626561442863        0.91802587378669       -0.77775281567107
C            2.35185697809437        2.50453111844308        0.07785816485597
C            3.69510702151496        2.21234828656273       -0.27149433489956
C           -0.66173455876508        2.86116414496738       -0.34988587046458
C           -2.04310505725344        3.12138244227096       -0.13037330375524
C           -2.74751864180134        2.25829158762223        0.74939091864477
H            2.09066703138381        3.48619279667438        0.43824432178108
C            4.73018917212611        3.14741414579397       -0.15169566829413
H           -0.10314113034712        3.48543211635339       -1.02822504193122
C           -2.72067837087221        4.17443131537462       -0.74633911424156
C           -4.10990315688064        2.49685342719159        0.99780826547353
C           -2.66270201144285        0.27385979253454        2.22135863670158
N            1.69392946142668        0.29958435570343       -0.45842341373043
N           -0.72390347625061        1.00773302848725        1.10506078156697
C            3.10120273205554       -1.29586414580747       -1.44953825575324
C            5.30314720612428        0.60403284949943       -1.15194888620251
C            6.01560771641216        2.81426633462470       -0.51889871969260
C            6.29975881530673        1.54284566520921       -1.01870042234101
H            5.51406886025619       -0.38394054480009       -1.53064612104821
H            4.50580032848368        4.12985410499800        0.23594255371807
H            6.80912699049548        3.53915423768340       -0.41904614021234
H            7.31188888660673        1.29503009148940       -1.30011109610601
C           -4.06279982218433        4.38420465733448       -0.49504932882525
C           -4.75103367302749        3.54761321399678        0.38076216356761
H           -4.63620708958571        1.84394949530257        1.67639041967752
H           -2.18136094967964        4.82397154027533       -1.41973001598788
H           -4.57946789736944        5.20065709303583       -0.97624075082329
H           -5.79808550198534        3.72504124320465        0.57553198774844
C            3.17296128376039       -2.37781470655313       -1.97272697034516
H            3.25111457289535       -3.33062488120165       -2.40378567119595
C           -3.12762537787747       -0.53590961983574        2.98371332401144
H           -3.52814171633377       -1.24590795897624        3.64335033923337
