61
 energy: -107.989409525449 gnorm: 0.000871337185 xtb: 6.5.1 (b24c23e)
Si           0.25375475456265       -1.44845234820386        0.61614750229916
O           -0.85163665657653       -1.77030260982145       -0.51301305536236
C           -2.04151264528881       -2.51603485172459       -0.50652840450774
C           -3.20415356289374       -1.58547806624017       -0.74733821138439
H           -2.15733075570060       -3.01208398624259        0.46525437164535
C           -3.02453221013124       -0.42485593801953       -1.48769836056739
C           -4.45835449036620       -1.87093832979757       -0.22587981543988
C           -4.07938486891129        0.44654227480373       -1.69127277045390
H           -2.04621919401639       -0.20737783688234       -1.89003253651439
C           -5.51483651654635       -1.00289115415435       -0.43575998641045
H           -4.60109436437704       -2.77276429482489        0.35173906585420
C           -5.32661686986023        0.15964794198206       -1.16456793184326
H           -3.92783140978660        1.35221776564143       -2.26114074877565
H           -6.48750301661864       -1.22954064006429       -0.02354325361169
H           -6.14984566442209        0.84167967228720       -1.31964587442653
C           -1.94748362577648       -3.58474013292976       -1.61225866970723
C           -0.86845080981077       -4.50327517940158       -1.31700405770350
H           -2.89590088867836       -4.12386763603260       -1.67364189337305
H           -1.75431443986681       -3.08597814717716       -2.56546826296888
C            0.04620884824757       -5.21668195033594       -1.02407882982576
H            0.83633693911169       -5.86108337798849       -0.77841817853579
Cl          -0.65757263045170       -2.46591163688581        2.26764923308393
Cl           2.08484090324835       -2.33860401488569        0.95864936549487
O            0.99214206726960       -0.47117767133893       -0.79835176813199
O            0.09932450850435        0.02995317749298        1.49423674006290
C            1.87156742148890        1.50576215689323        0.01210687177195
C            0.47607515411483        1.93799375489897        0.18794071203517
C           -1.70133447742377        1.41908576571816        0.99669848573029
C            3.28851464984209       -0.15030084855625       -0.91887016209184
C            4.43490373703703        0.62457829505630       -0.60574117748190
C            2.93712385130190        2.31053078977804        0.30734117466403
C            4.26229767974784        1.87804932691511        0.03860614142363
C            0.02325077053110        3.09689115328651       -0.37962511934236
C           -1.35074257472324        3.46168744695509       -0.29776432853035
C           -2.22878884592242        2.58933031575849        0.39824363707681
H            2.76661907733355        3.27249270547035        0.76284899999645
C            5.38910728422641        2.64216056329821        0.36147234213919
H            0.70917551227110        3.71927507264894       -0.93104337173452
C           -1.86334406518498        4.61666543392896       -0.89143365143023
C           -3.59601493802339        2.90464299480247        0.47275580554715
C           -2.48455905497525        0.52207348665899        1.72304808338712
N            2.06165088316461        0.29147641768879       -0.56162031475532
N           -0.37144287624641        1.14562579790775        0.88214067072081
C            3.36507072362618       -1.35067099317997       -1.63421939466843
C            5.73237893666885        0.18261264220822       -0.91361082163733
C            6.65271801212485        2.18413420674976        0.05574522870420
C            6.82151486855032        0.95557604131241       -0.58293139126320
H            5.85294798048733       -0.77184385801252       -1.40161344030799
H            5.25347721963792        3.59301260871006        0.85474696281896
H            7.51719965391629        2.77792962086034        0.31089442488659
H            7.81650276051059        0.60896204155589       -0.81706461655250
C           -3.21108837822948        4.90751242944758       -0.80528893327066
C           -4.07274017751250        4.04986597780025       -0.12474199780843
H           -4.25563019641822        2.23214518383009        0.99849698432798
H           -1.19295036913312        5.27744839204702       -1.42056067017180
H           -3.59877005810334        5.80189892065897       -1.26862220441473
H           -5.12445407629375        4.28608372698760       -0.06598764350640
C            3.40962840924756       -2.35641270886243       -2.29453728460667
H            3.44665022515722       -3.24991850987574       -2.84239361765333
C           -3.12371278525470       -0.27488846839435        2.36222117296990
H           -3.67158633840125       -0.97588691220136        2.91661077413320
