61
 energy: -107.989354086495 gnorm: 0.000710387885 xtb: 6.5.1 (b24c23e)
Si           0.15206730328482       -1.43793199667610        0.70305015135297
O           -0.80049953197137       -1.95729587486703       -0.49070532141494
C           -2.05818803134203       -2.58348659321781       -0.49506583761382
C           -3.13440879842654       -1.55066121712574       -0.72221890121058
H           -2.22181272876578       -3.08373318363746        0.46754222403413
C           -2.85485990364921       -0.40805539170782       -1.45963012773912
C           -4.40699741331018       -1.72623920440231       -0.19728130977469
C           -3.83014142572660        0.55212461721265       -1.66049192853147
H           -1.86144306963326       -0.27706628003785       -1.86277663494409
C           -5.38392161241800       -0.76842667891971       -0.40346488944025
H           -4.62630289443545       -2.61319703513051        0.37940489838059
C           -5.09665316231241        0.37378176867851       -1.13159789238238
H           -3.60204807215688        1.44228849473975       -2.22960580277628
H           -6.37177107209551       -0.91023575235327        0.01020486378209
H           -5.85793390556430        1.12426145446940       -1.28649504479571
C           -2.06150474234856       -3.62972110037192       -1.62546480887554
C           -1.11495986575345       -4.68622925677220       -1.33919024612501
H           -3.06732327998902       -4.04579152124621       -1.72528169563672
H           -1.78442186977598       -3.13280738340724       -2.55852032294972
C           -0.31881072198350       -5.53588915291776       -1.06499349628711
H            0.36698659105240       -6.29310637091816       -0.82833502818775
Cl          -0.91180621135868       -2.29084713352741        2.35593868439823
Cl           1.94443026587713       -2.29809980984555        1.25677933093063
O            0.98034819581090       -0.55787459771246       -0.71942224362802
O           -0.03302828113959        0.09317070673615        1.47488034268205
C            1.93588065966671        1.40625364356890        0.03350553163081
C            0.56659024574611        1.93333254758963        0.13780002332923
C           -1.67404223764557        1.62367972746154        0.88214795005149
C            3.29205892233352       -0.37243042564066       -0.75014447080769
C            4.46782425340496        0.35221982516665       -0.42807198543116
C            3.03479538760998        2.16475240283854        0.33295674037860
C            4.34194091480719        1.64711377457315        0.14068450740459
C            0.23176911178162        3.11565970527535       -0.46442965032838
C           -1.10500014581414        3.60397014498260       -0.42967983538064
C           -2.07663473454841        2.82802156794729        0.25578505940236
H            2.90248491895425        3.15547281896259        0.73642731599198
C            5.49714181104824        2.36502964447779        0.47013657157460
H            0.98668558151371        3.66698027373818       -1.00096917132542
C           -1.49242810151042        4.79323633344945       -1.04989654607038
C           -3.40887449686366        3.27271851099857        0.29541267379761
C           -2.54976562956925        0.81588408315345        1.60797287583728
N            2.07965672798768        0.15783016746789       -0.47469408786015
N           -0.37122112235954        1.22607489849746        0.80857380228746
C            3.32525629812718       -1.61714043888759       -1.38933570187199
C            5.74893962498051       -0.17865255893083       -0.65283929021155
C            6.74326135634989        1.82094167749422        0.24537770492198
C            6.86641377876442        0.54987651492727       -0.31628987093637
H            5.83373218426071       -1.16480439532659       -1.08176180225744
H            5.39653496350166        3.34844288891431        0.90439852603909
H            7.62957998198166        2.37946094336863        0.50523695149049
H            7.84840916478740        0.13516353016834       -0.48566596808201
C           -2.80813396433348        5.21161542971671       -0.99855431805503
C           -3.76158977637114        4.44946188916907       -0.32693930885050
H           -4.14015429239847        2.67377559862978        0.81528261627441
H           -0.75058624378906        5.38035528929190       -1.57049351671358
H           -3.09900696837072        6.13206643475755       -1.48137388787385
H           -4.78688908495919        4.78581172202768       -0.29448852694724
C            3.32825179834202       -2.66634340122410       -1.98001130813979
H            3.32828903549963       -3.59510198990680       -2.46674315231126
C           -3.26313083522218        0.08758868661089        2.25054717485947
H           -3.88015584956400       -0.54824897235084        2.81078141093540
