61
 energy: -107.992041235592 gnorm: 0.000754461044 xtb: 6.5.1 (b24c23e)
Si          -0.28902841492355        1.61921068334723        1.08177850919425
O            0.61050427201598        2.51509615743261        0.08045595727813
C            0.79141720797470        2.45106201594366       -1.32088328577351
C            1.76825868082362        1.35229655611783       -1.65126616618783
H           -0.17266148549122        2.24475362874302       -1.79553141646760
C            3.01427402893695        1.32960979785553       -1.03637994632643
C            1.43065655536042        0.33582086888385       -2.53371988307372
C            3.91466015713512        0.31775631520349       -1.31623526913476
H            3.26744032393061        2.10050272460596       -0.32460401611480
C            2.32695377139282       -0.68445756837568       -2.80243944848012
H            0.45825626631086        0.34351336976302       -3.00475564401841
C            3.57324577655475       -0.69211354523651       -2.19990769678861
H            4.88323478151029        0.31347461249577       -0.83893909730082
H            2.05249293861703       -1.47599659379837       -3.48481706750998
H            4.27302614189786       -1.48722287399321       -2.41122819325271
C            1.30245143655950        3.82375510810699       -1.78833121042375
C            0.25582536590262        4.81722189765914       -1.67855070768632
H            1.63413705598495        3.74592891021226       -2.82749190828657
H            2.14735621582597        4.11924032185410       -1.16304475765412
C           -0.63681608138251        5.60703131692585       -1.57540845884869
H           -1.40189890050079        6.31733991998510       -1.47520470082510
Cl           0.44673667530395        2.66139165773344        2.73467247906991
Cl          -2.28468393363564        1.89851518039995        1.52238376325490
O           -0.80712690550657        0.56636543506680       -0.46706661521688
O            0.20816323279230        0.13006786193144        1.78198315353440
C           -1.29552108869642       -1.58983755194278        0.19362410341568
C            0.15030907303428       -1.77057843121188        0.39055500287473
C            2.20178909514503       -0.94721870951460        1.27574919656712
C           -2.98584454599634       -0.17277825824796       -0.67278213267348
C           -3.97103107322385       -1.16613172112298       -0.44629312031516
C           -2.19775705467102       -2.59812035810140        0.40467096142233
C           -3.57398254807622       -2.40595772562137        0.12063843616823
C            0.79601616942952       -2.82653457494161       -0.19195108278761
C            2.20225517713360       -2.99354967659775       -0.05652253240885
C            2.91366470164686       -2.02623650451871        0.70042473460004
H           -1.85801138915288       -3.53748800415833        0.80955819261125
C           -4.54206201625492       -3.38887359332294        0.35905300289095
H            0.23085314074370       -3.52827150787155       -0.78347561989474
C            2.89812884135190       -4.05118212623540       -0.64382032665200
C            4.30358022738153       -2.16376099389725        0.85565097655260
C            2.81443825021078        0.06116667642139        2.02067631077419
N           -1.70405607314797       -0.40093013437340       -0.31071540854216
N            0.84759301575337       -0.86983167360014        1.12116633001722
C           -3.26480403848739        1.04791809353263       -1.29982283250326
C           -5.32296116090465       -0.95376960692525       -0.76236488872704
C           -5.86352963742764       -3.15518319732538        0.04688256550904
C           -6.25152596694318       -1.93802235562409       -0.51421680954685
H           -5.61415929112214       -0.00676978993157       -1.18946847663707
H           -4.23726601943570       -4.32935080638604        0.79310154658827
H           -6.60457878590293       -3.91655222401163        0.23730622699759
H           -7.29044232748679       -1.76826821986880       -0.75268227589562
C            4.26611133206357       -4.16122330494340       -0.48603538019963
C            4.96340150172997       -3.21876679549283        0.26654441090764
H            4.83574352992655       -1.43113807501579        1.44231040914738
H            2.35293884426185       -4.78206271492722       -1.22233457308569
H            4.79691368495278       -4.98120663302833       -0.94537361591825
H            6.03170292156369       -3.31745908170936        0.38772425786438
C           -3.43897710239840        2.09170218555374       -1.87397335473769
H           -3.61316027986002        3.01084591143974       -2.34814175892576
C            3.28565869070361        0.95970465265527        2.67184499657082
H            3.68725403876553        1.74608707200349        3.23766815500996
