61
 energy: -107.988980469576 gnorm: 0.000617613704 xtb: 6.5.1 (b24c23e)
Si          -0.13770375953496       -1.80618317825520       -0.41638573614475
O            1.45181544818785       -1.51678072305485       -0.40726617804470
C            2.63624760340409       -1.58615553927544        0.35045563828777
C            2.67056712005529       -0.43496135796076        1.32847095046667
H            3.43438369696782       -1.44741645303445       -0.39501434189131
C            1.64007446113332       -0.25817160386410        2.24326623923447
C            3.71053162063637        0.48496303569699        1.29262282128794
C            1.64023576516077        0.83635467649917        3.08966787728373
H            0.83119231020960       -0.97145400103281        2.28331638440147
C            3.71851561161356        1.56921367968653        2.15187776857369
H            4.51723654631525        0.35161615558990        0.58573414514165
C            2.67727372395877        1.75280929979395        3.04507837817579
H            0.82909492264620        0.96978530010295        3.79046196389523
H            4.53371692748876        2.27663903028450        2.11537035122140
H            2.67666726087118        2.60607299009147        3.70733261925187
C            2.86700054464969       -2.93375417740033        1.05203202278506
C            2.92439758520728       -4.00334919610683        0.07934273412616
H            3.81340285210830       -2.87203086488692        1.59683741347974
H            2.05822929484191       -3.13418161845537        1.75555293150072
C            2.96398567505642       -4.84777133364738       -0.76703114910652
H            2.98383738481194       -5.61348104269440       -1.48319346677855
Cl          -0.94188420835138       -2.86555059161788       -1.95453685515649
Cl          -0.30752485637788       -3.34681546195922        1.03833406494598
O           -1.07740388941655       -0.84890087458221        0.67337524003138
O           -0.27945942835495       -0.33208713499289       -1.62569897714112
C           -1.71328919270758        1.28563491261195       -0.07663929463230
C           -0.30328569250909        1.59441499642047       -0.34868694877273
C            1.60291180563382        1.02434360400931       -1.62752531072169
C           -3.33917336215238       -0.37295633639538        0.44965615042994
C           -4.38810763652840        0.55483727304861        0.24203496448072
C           -2.68936698255481        2.22236671572399       -0.27470561338057
C           -4.06380378487810        1.89362612343113       -0.10566633556740
C            0.31907737385304        2.70174300853338        0.16140636163646
C            1.65943492297517        3.00047919892128       -0.18977297050616
C            2.30662273660189        2.14634733563577       -1.11991743550883
H           -2.41351311227862        3.21178370919898       -0.60132013500864
C           -5.09122555245057        2.81941304023256       -0.29676568612448
H           -0.21160071696859        3.33766519089791        0.85093740978339
C            2.35386879974341        4.09777930622049        0.33093631069850
C            3.62830043732933        2.42690514172619       -1.50464576383010
C            2.16494232343296        0.14546668119639       -2.56025699433804
N           -2.04378206767298        0.03641486626837        0.32602635623923
N            0.34139100915180        0.77270520755771       -1.21262556924062
C           -3.55383548687414       -1.70868296926130        0.79291908672123
C           -5.73858843197821        0.18879773468758        0.37653492001256
C           -6.41084975609118        2.43872567465150       -0.15245687099314
C           -6.72986738797188        1.12366591649263        0.18084593703832
H           -5.97716583236246       -0.83116991492995        0.63518854581221
H           -4.83952582445987        3.83573711324575       -0.56093895213256
H           -7.19877132010722        3.16089581001690       -0.30218924072230
H           -7.76497654701586        0.83609851293253        0.28609916740174
C            3.65191905458554        4.34943547924630       -0.05762126349943
C            4.28616729078270        3.51395101235601       -0.97638905859032
H            4.11261040828384        1.77504389491816       -2.21548498867190
H            1.85717183620738        4.74196742058160        1.04068909441094
H            4.18140624379881        5.19786001228459        0.34882138275484
H            5.30251469366434        3.72277164029631       -1.27464820405312
C           -3.67427215671186       -2.87214023518757        1.08323339039439
H           -3.77929433612385       -3.88589844274987        1.33027834519176
C            2.62945807721852       -0.62131653415275       -3.36397798454193
H            3.03297395384735       -1.29834911559203       -4.05591164200097
