61
 energy: -107.983838315514 gnorm: 0.000988775989 xtb: 6.5.1 (b24c23e)
Si          -0.37349250133026       -1.09402254174188       -0.42684923797799
O           -1.66859300431023       -1.87557361450852        0.19324962888331
C           -2.98483725298398       -2.07505478008407       -0.23679951996405
C           -3.97575680028480       -1.40216985665085        0.67916265265019
H           -3.10039811981896       -1.67350298483424       -1.25272372790372
C           -3.59617507681290       -0.93413250827663        1.92821382070892
C           -5.29781936724558       -1.25920797750229        0.27166756779083
C           -4.52261507852495       -0.32433026501526        2.75662936559620
H           -2.56762169632485       -1.04146110788943        2.23394860745508
C           -6.22431437220123       -0.65570197442715        1.10312564593867
H           -5.59654450651113       -1.61156608144904       -0.70599719954495
C           -5.83776282699500       -0.18506742900235        2.34824573748272
H           -4.21658493258963        0.04268500078086        3.72536746745087
H           -7.24924772423897       -0.54698744782509        0.77757657740944
H           -6.56096943066449        0.29052490451132        2.99474435218478
C           -3.24220968503972       -3.59840313790569       -0.26932141618353
C           -2.36773427016103       -4.23288416939355       -1.23090884822414
H           -4.28578209550145       -3.78795455268955       -0.53038222105426
H           -3.04184176630074       -4.00290719514396        0.72629002874969
C           -1.61502928498479       -4.70887643814852       -2.02970344377591
H           -0.96503029131513       -5.14760352958633       -2.72549453312569
Cl          -1.11072570355660       -0.75408698621536       -2.34207947354783
Cl           0.81798947090646       -2.33683253447769        0.77152596726343
O           -0.48092618101270        0.32648464024930        0.53697413067679
O            1.17467377304979       -0.44541903645785       -1.24213212434264
C            1.24250059752687        1.88088765255311        0.09625006043174
C            2.28577099304843        0.86298587989174        0.30461711068224
C            3.24475913425155       -1.15615119110171       -0.48398627303636
C           -1.05086571046285        2.46482213646939       -0.15507085882266
C           -0.70701894966547        3.80449760209732       -0.46477806753753
C            1.62221717973482        3.16645678476623       -0.18281913266632
C            0.66226389579104        4.17801360537477       -0.46374320704318
C            3.33375753753157        1.06771119482397        1.16064287965215
C            4.38793686634063        0.12266380234623        1.25258247013039
C            4.34732410809859       -1.00668530787025        0.39336507526023
H            2.67203415730711        3.40701928013834       -0.22423104719376
C            1.01528082202885        5.49707696056634       -0.75275957055474
H            3.34713936030713        1.94752076971334        1.78332901183875
C            5.46304177948084        0.27063622196282        2.13643069135419
C            5.38879275572453       -1.94825077795998        0.44340301927336
C            3.13639090921800       -2.22098600342670       -1.38554052964758
N           -0.07264447433940        1.55896007981245        0.14022501553681
N            2.25541496558707       -0.23799986003066       -0.48275982921507
C           -2.37585613700540        2.02965460615816       -0.11444744157478
C           -1.68029519091962        4.77249038044310       -0.76512670728628
C            0.04097775061419        6.43325264715756       -1.04045202338877
C           -1.30282389776630        6.06653205180469       -1.04794378977134
H           -2.71920660413300        4.48209325058459       -0.76929316258619
H            2.05880159650788        5.77451711582118       -0.74971452980541
H            0.32144949248419        7.45131454786602       -1.26329658384232
H           -2.05592040903013        6.80487105931978       -1.27827850474181
C            6.47105896657692       -0.66824633090679        2.17054824104719
C            6.43228842983642       -1.77582791724281        1.32273648130388
H            5.34646055205192       -2.80464758427289       -0.21110928304733
H            5.48913512480575        1.12910312371760        2.79081209776155
H            7.29578602332747       -0.54855476980830        2.85661139344817
H            7.22841902179050       -2.50373852040730        1.36066476525752
C           -3.52562030615878        1.66966060584033       -0.07706126262069
H           -4.52064763027581        1.34080942737091       -0.04304808640387
C            3.03759643523483       -3.11010610407625       -2.19146759843839
H            2.94355057930368       -3.89716281581586       -2.87823462835296
