61
 energy: -107.991546121996 gnorm: 0.000852367564 xtb: 6.5.1 (b24c23e)
Si          -0.02751162019661       -1.71207440407029       -0.54634701970296
O            1.53685123192326       -1.34307982855323       -0.30529770917203
C            2.47327621997049       -1.82237123803607        0.64033686561920
C            2.34534279150501       -0.96593845891001        1.87710792865598
H            2.22923338301773       -2.86146986574851        0.88748155836585
C            2.67501511824709        0.38322065752008        1.83794003730792
C            1.79510479669293       -1.49400694026632        3.03727364323355
C            2.45888047363141        1.19223473720787        2.93877398632217
H            3.09765013129395        0.80917076269570        0.94023060778259
C            1.58601596158142       -0.68591396898499        4.14136780044344
H            1.51549797512596       -2.53617523288513        3.06457798518281
C            1.91400830816728        0.65847695763500        4.09426992608477
H            2.71489613726655        2.24146026667803        2.88983516428152
H            1.15666713739726       -1.10632669380768        5.03878849229299
H            1.74277729314420        1.28959579063890        4.95432877506700
C            3.87263294717037       -1.76849301708001        0.01075535822268
C            3.97055310761483       -2.71472312096625       -1.08012255928245
H            4.61076975713530       -2.01133517469976        0.77985367567521
H            4.06738661030013       -0.76319064962665       -0.36952738322359
C            4.00842600002688       -3.50738465570844       -1.97532670215699
H            4.05601227767751       -4.20734327120166       -2.75508143965355
Cl          -0.75097517431161       -2.70186331030714       -2.18311077829971
Cl          -0.16209004794678       -3.39591713162878        0.75736683594940
O           -1.04179261054196       -0.87858092790096        0.57913338287980
O           -0.13802310843062       -0.22867021640271       -1.65238560204278
C           -1.76081340567219        1.24723866691535       -0.12311074762754
C           -0.36369752143234        1.65577825145362       -0.32523949374948
C            1.63887936847695        1.25835545064969       -1.52527524681014
C           -3.31344447022738       -0.50757921491842        0.29856883385673
C           -4.40370644935253        0.36845209838843        0.07944401165430
C           -2.78027982413495        2.13488729796023       -0.33439738850908
C           -4.13959422232853        1.73079676334181       -0.22372968641108
C            0.14987088937556        2.79698595498799        0.23118474198844
C            1.47742127933407        3.20627871055721       -0.05619271886702
C            2.22978368180552        2.42386460257203       -0.97165384916104
H           -2.54748383851846        3.14643650003230       -0.62491208747460
C           -5.20810819352365        2.60672831845996       -0.42714979260510
H           -0.45609836305880        3.37533456825267        0.90919051552050
C            2.06403573168906        4.33908166689665        0.51813625005006
C            3.54395214420014        2.80901320083962       -1.28712545230984
C            2.31453196870534        0.42797024173313       -2.42518979027153
N           -2.03851042524150       -0.02904543766893        0.23406105404642
N            0.38213948033968        0.90721944912546       -1.17203549617153
C           -3.46742857965141       -1.86258763911377        0.59752242989286
C           -5.73637147565877       -0.07128255931244        0.15955253187880
C           -6.50918834128480        2.15380854918457       -0.33685617076701
C           -6.76879568960198        0.81539893495961       -0.04647125110279
H           -5.92849742619837       -1.10881170742005        0.38473592708588
H           -5.00210622677879        3.64140743176768       -0.65730916936389
H           -7.32919662949878        2.83737646879216       -0.49517185958815
H           -7.79010137420863        0.47181310919552        0.01679382544214
C            3.35824163149404        4.69310103946972        0.19884631870714
C            4.09485475356421        3.92822720907546       -0.70455876029967
H            4.10861541308188        2.21026659241103       -1.98570785231693
H            1.48871493734071        4.92937968585476        1.21561188241569
H            3.80460870455134        5.56666929905780        0.64905772100760
H            5.10633247187514        4.21600317052682       -0.94789201032855
C           -3.53372542816715       -3.04250573723971        0.83419100068159
H           -3.58384265191703       -4.07061892425718        1.03522775868260
C            2.88517096788389       -0.30229410654217       -3.19415134670546
H            3.38613501527859       -0.95152397157463       -3.84724846230422
