59
 energy: -108.495401054605 gnorm: 0.000495343175 xtb: 6.5.1 (b24c23e)
Si           0.50352345893078       -1.15946522822368        1.01386051566428
O            2.16377782696383       -1.79862624154811        0.57491777482555
C            2.78763073477435       -1.71396451899719       -0.52774917676203
C            4.19780234366312       -1.85064650564307       -0.62538602206521
H            2.21709524716615       -1.59716719345673       -1.45017289641024
C            4.98775940386724       -2.03048897157239        0.52646477728632
C            4.82808963586711       -1.80869119330982       -1.88324796934976
C            6.35313880664389       -2.16499377470014        0.41597305450778
H            4.49497310033333       -2.06055212067150        1.48596036426385
C            6.19469898926429       -1.94465472486498       -1.97805129066291
H            4.22575547324181       -1.66790951080033       -2.76807545053259
C            6.96245748388675       -2.12361053846228       -0.83277760744029
H            6.95460444389931       -2.30429266689439        1.30190082152673
H            6.67401147470587       -1.91237203000105       -2.94512768551733
H            8.03350153737751       -2.23103630480925       -0.91443327909096
C            3.00350519753512        1.21289639699540       -0.79601824526220
C            2.12467975066746        0.97743840248328        0.12905385479201
H            2.72477856007327        1.59393840619258       -1.76574138308856
H            4.05896242792576        1.09894271430623       -0.61012362457680
C            1.24583371861133        0.60303533885788        0.99817599322123
H            0.88756955186651        1.28044775210498        1.75729013342731
Cl          -0.30510301299646       -1.98577990723825       -0.71178888621943
Cl           0.63749587761416       -2.14149063799447        2.77247896014290
O           -1.15047158185179       -0.45923086231040        1.51767859957801
O           -1.01693905731318        1.43465022501717       -2.24911826544480
C           -2.43973814571270        0.52557654472175       -0.15947491590645
C           -1.56215872061080        1.70067444368060       -0.04534300602140
C           -0.03289138865641        3.13234486094745       -1.10813182447695
C           -3.03238488436145       -1.58453460560218        0.74255978083267
C           -4.08779776656021       -1.72224184999191       -0.19528479766867
C           -3.43655327417781        0.44492790513980       -1.08782173208522
C           -4.28792913940758       -0.68996502463044       -1.14893305046081
C           -1.43629381760763        2.39177472190871        1.12597436725329
C           -0.58651068734154        3.51345614851475        1.23096545291149
C            0.14652583739903        3.88715445668993        0.07726091588363
H           -3.57236542475411        1.24891633878994       -1.79245029593167
H           -1.99225427111394        2.06345434098876        1.99098075903598
N           -2.23502327948512       -0.48357196751062        0.72998652040194
N           -0.87327318391679        2.07670150756472       -1.18170292995552
C           -5.30681215116594       -0.82114513355188       -2.09768233788793
C           -6.11103801344596       -1.93981134035810       -2.10427067600761
H           -6.89441599135750       -2.03685166860621       -2.84028021142267
C           -5.91847406877978       -2.95152046584540       -1.16201296164626
H           -6.55661642733834       -3.82190245157507       -1.17632987839485
H           -5.44787937403770       -0.03623418714071       -2.82509800067188
C           -0.42604673422926        4.24701557698381        2.41926869320676
C            0.43542530244230        5.31201092967342        2.45934400006092
H            0.56056633067491        5.87409215385242        3.37203981282279
C            1.16221284035289        5.67914138770409        1.31867912761608
H           -0.98730516986891        3.95244342299909        3.29324387419889
H            1.83743781182280        6.51952166635000        1.36891453164132
C            0.69118150531694        3.45357161511780       -2.27304578429011
C           -2.77830369465190       -2.57961123526053        1.69180892839999
N            1.30780586025565        3.73353308060715       -3.19932665834523
N           -2.61614986035500       -3.41567620054422        2.46567961313226
C            1.02493248648815        4.98396104633842        0.14507193220625
H            1.58339175076243        5.26430831038502       -0.73501521407122
C           -4.92294032794155       -2.85230827160552       -0.21835698701621
H           -4.76708132136747       -3.63529036118588        0.50787888584872
