59
 energy: -108.586931240810 gnorm: 0.000721745334 xtb: 6.5.1 (b24c23e)
Si           0.97352567803376       -0.64493066293247        1.27962221199990
O            1.03787265343246       -1.76776247155950        0.15553448029154
C            1.68658232838492       -1.86906307459890       -1.11080545936793
C            3.17792738311985       -1.79368729855140       -0.92941365256185
H            1.33728972821745       -1.03287523395254       -1.72373407519954
C            3.80947931912492       -2.63628584799676       -0.02264248151190
C            3.92555708653242       -0.85479422286562       -1.62670924072278
C            5.17575750395640       -2.55002092832731        0.17292274073406
H            3.22451057802943       -3.34548560037815        0.54436014117498
C            5.29324776491019       -0.77296498294505       -1.43160901862287
H            3.43423533462132       -0.17692031290264       -2.30869134693663
C            5.92030039358876       -1.62166662260415       -0.53537206313352
H            5.65869331296587       -3.20616732617663        0.88173911749799
H            5.86671455283399       -0.03677107542108       -1.97417287709378
H            6.98719428775587       -1.55422237046866       -0.38136394582615
C            1.23646899410353       -3.19656156436134       -1.73445707357609
C           -0.17822954412874       -3.16481372411362       -2.04035254577370
H            1.43465946682547       -4.00793079434570       -1.03009981305157
H            1.80888396305022       -3.36880934340925       -2.64937097659142
C           -1.34893230763216       -3.10655560953096       -2.27927914147849
H           -2.37434978850594       -3.07615025606853       -2.49851330137844
Cl           2.11839208975758        0.99970456118983        1.13060461705988
Cl           1.40715967894512       -1.50098272023671        3.03866714495731
O            0.13364548749700        0.62796669438324       -1.07334725150079
O           -0.60540355600879       -0.14105051989071        1.50658707569669
C           -1.50021902363961        1.86100054518200       -0.07805255367540
C           -2.24278913768071        0.59114194598492        0.00194815487726
C           -2.21678081697080       -1.68780642501987        0.71314587757810
C            0.47373080615936        2.87075015686513       -0.86722240771896
C            0.03880963120004        4.14467804728362       -0.42588786294214
C           -1.98722229147518        3.06283586435080        0.35164721765432
C           -1.22934678149564        4.24570836762933        0.20273274348465
C           -3.41773050683743        0.40771704778846       -0.66224779105964
C           -4.06671401526879       -0.86489959067778       -0.66549008682631
C           -3.43449877313719       -1.93410319917856        0.02204214864987
H           -2.95709436451041        3.10070871662977        0.82285813204409
H           -3.84067241884187        1.22309033431119       -1.22634344112363
N           -0.27565388428717        1.76591514311053       -0.68467955579985
N           -1.68792206219185       -0.42246085335158        0.71005812896891
C           -1.67681130957234        5.50166928906418        0.64564282683620
C           -0.89438579027648        6.61493043368293        0.47152414640810
H           -1.24011174029845        7.57801190965383        0.81449987148938
C            0.35630541215389        6.51295498016106       -0.14931224652007
H            0.95908231059389        7.39897984679981       -0.27676761801864
H           -2.64192915338291        5.57188178277518        1.12458520373238
C           -5.26472969975569       -1.09557114302649       -1.33931979054403
C           -5.83601315836839       -2.35484070573829       -1.34205954956368
H           -6.76347131630905       -2.52438690653530       -1.86714775811794
C           -5.21377858139722       -3.40540646906652       -0.67371195328799
H           -5.73960602508363       -0.27830647519699       -1.86162372728069
H           -5.66172292255203       -4.38741169462604       -0.68569313344208
C           -1.56366457486635       -2.70406191165278        1.40012139609803
C            1.69803256749083        2.69303823483258       -1.53958706535720
N           -1.06767491514245       -3.57595443266611        1.96988942480065
N            2.67931023354423        2.56042370065091       -2.11969372307058
C           -4.02866125949687       -3.20598713935943        0.00178166939673
H           -3.54144408922608       -4.01957575810721        0.51631325128427
C            0.82087469159657        5.30083005083235       -0.59398267030572
H            1.78517856991368        5.21527161467849       -1.07110752373412
