59
 energy: -108.583104472065 gnorm: 0.000683228767 xtb: 6.5.1 (b24c23e)
Si           0.81914530311955       -0.71009873884534        0.80304678711561
O            2.23739355029851       -0.76987020799214        0.05219098635049
C            3.32398350684863       -1.66883962727561        0.10555651070634
C            4.40270964896931       -1.19295248940034       -0.83530298777446
H            2.96288488015251       -2.66013353780205       -0.20459132576390
C            4.67193400779155        0.16280359524694       -0.96387515763909
C            5.16439166858407       -2.11364709842374       -1.54306471564144
C            5.68936464629172        0.59001204442189       -1.79913144169213
H            4.07388344883938        0.87789014553261       -0.41977296031817
C            6.18603810962705       -1.68310440670152       -2.37087392234323
H            4.95594412229967       -3.16991439461196       -1.44429228018128
C            6.44975199105687       -0.32983225128174       -2.50096054865519
H            5.89036527121252        1.64640243747878       -1.89721792008254
H            6.77493109210421       -2.40527367325504       -2.91728381985696
H            7.24643387894601        0.00484704576494       -3.14902448822468
C            3.89228194855701       -1.77184408269565        1.53458000755780
C            3.02590754439243       -2.55706074224006        2.38636150580511
H            3.99811956548559       -0.76137380245099        1.93638791322885
H            4.87909735897735       -2.23955110663791        1.48686942873903
C            2.27955736694833       -3.22622299937888        3.04035882447075
H            1.63150746862788       -3.79971953764973        3.63327473125644
Cl           0.98673510285659        0.05186863954749        2.63776447779212
Cl          -0.04668519975919       -2.51372954231296        0.55995833218166
O            0.05565208657271        0.29217870881008       -0.28942644510716
O           -1.70494867747061       -0.29547619925079        1.66665218787877
C           -1.91629613029687        1.54630027929432       -0.18849058217107
C           -2.65509166449603        0.27974163775705       -0.31750860718229
C           -3.15674174547968       -1.77308788251042        0.71639987168343
C            0.19273114811358        2.60597421098990        0.18484238655147
C           -0.43875946046454        3.87924349661313        0.24719599804976
C           -2.56212710117135        2.74616311740751       -0.15515854109271
C           -1.84260526583568        3.96240829744621        0.05339891544830
C           -3.50151528419321        0.00616927040541       -1.35468742031734
C           -4.21587901456614       -1.21061440526757       -1.40538334330471
C           -4.03358169151097       -2.12777008864619       -0.33835621171885
H           -3.63543345023317        2.77271586792007       -0.24927355667896
H           -3.60958839223241        0.72703897391388       -2.15016277346727
N           -0.56777686607432        1.48763511864125       -0.06033703238684
N           -2.48937998167028       -0.60364537536039        0.71888331188109
C           -2.46742691078939        5.20733650255658        0.09210956172383
C           -1.73030592551281        6.35480969304924        0.31877997095828
H           -2.22310766088066        7.31439542068151        0.34539928353853
C           -0.35546069583724        6.27356901088716        0.51695521329006
H            0.21362930616268        7.17248303839929        0.69878196658722
H           -3.53551098736668        5.26378010085733       -0.05659629116024
C           -5.08796946222589       -1.54395672599352       -2.45589698288576
C           -5.75307917079989       -2.74323918311485       -2.44758519679127
H           -6.42215431154693       -2.99630494402819       -3.25583040180817
C           -5.57007807283132       -3.64846142401646       -1.39457793662047
H           -5.22188244896740       -0.84143643624136       -3.26481367947885
H           -6.09977756986673       -4.58860924479541       -1.40511270615631
C           -2.96752775173331       -2.62510080071664        1.82274935088176
C            1.56618307122384        2.47414153569401        0.33435126387183
N           -2.86186472871102       -3.32897663815146        2.72221076897758
N            2.71311333600755        2.41744485825131        0.45599941792142
C           -4.72647368116069       -3.35184562362888       -0.35434431917931
H           -4.57997230670465       -4.04598138089955        0.45892000611131
C            0.28897004992028        5.05541960702303        0.48367461440421
H            1.35510113041227        4.99024993700309        0.63693700069771
