59
 energy: -108.582031467221 gnorm: 0.000823920004 xtb: 6.5.1 (b24c23e)
Si           0.67462551080940       -1.01744953612732        0.95417541482592
O            2.08112822902365       -1.48056832499248        0.33831894685388
C            3.41896221318087       -1.34530605272097        0.78111868440703
C            4.30319189052392       -0.93383674561855       -0.36651452140154
H            3.45877988077371       -0.58729390807064        1.57156679215959
C            4.02718251134110       -1.36291301815182       -1.65678729672566
C            5.42497630472476       -0.15036113123517       -0.13171944002441
C            4.86094080250117       -1.00708069583547       -2.70230920320613
H            3.14829807919286       -1.96391178585308       -1.83587244834237
C            6.26057026461989        0.19866138132670       -1.17678437387511
H            5.63422230362956        0.19461620184191        0.86956170249500
C            5.98055105455448       -0.22874554595851       -2.46405047779345
H            4.63683386742357       -1.34010328234757       -3.70546549505623
H            7.12999431323866        0.81124177126426       -0.98791034678025
H            6.63163107278575        0.04798186544606       -3.28050355317293
C            3.88370116887876       -2.70095354703111        1.34930255870962
C            3.06879546025293       -3.09015612428165        2.47985241568311
H            4.93044286946421       -2.61756211186062        1.65096933922711
H            3.79939935873639       -3.45673380825053        0.56359230415045
C            2.35006893948312       -3.37412360513484        3.39369088705782
H            1.73520209034619       -3.64016495836945        4.20073198061759
Cl           0.90884498169083       -0.17540406738045        2.74544981959704
Cl          -0.42329686791123       -2.67008283949022        0.67746015941358
O            0.08252060827275        0.01945196033924       -0.22238176486422
O           -1.77586209267105       -0.21975846365635        1.71155632453743
C           -1.70797967654816        1.52876028322067       -0.24462155958197
C           -2.60683519751644        0.36526879846024       -0.32285562259875
C           -3.39470083984960       -1.54211203906336        0.80563150372244
C            0.52287342970736        2.31993211633357        0.09582122668012
C            0.06612447836898        3.66677355804893        0.08836113075213
C           -2.18859199845747        2.80403857768367       -0.27529903222609
C           -1.31540254202825        3.92336257822673       -0.11435941718028
C           -3.46322261887712        0.14766881591779       -1.36486015475614
C           -4.32957825206021       -0.96702042904300       -1.37026622224719
C           -4.28907446791886       -1.83920237059259       -0.25179869588369
H           -3.24839041040052        2.96785372174697       -0.38309840169390
H           -3.46141446531857        0.83155210645945       -2.19955167307716
N           -0.37977330742502        1.30099439200673       -0.09935215421385
N           -2.57838426148640       -0.47291854116794        0.76278627578022
C           -1.77288216150068        5.23954343422148       -0.12758111404254
C           -0.89176482593076        6.28968757645604        0.05250548909772
H           -1.25556344916654        7.30557098299849        0.04160648436390
C            0.46231164727649        6.03881607984611        0.25112031121422
H            1.14444045812181        6.86327116302126        0.39249092743794
H           -2.82538407617603        5.42798329179366       -0.27856662059937
C           -5.21688203499541       -1.24270686803978       -2.42503521676477
C           -6.03115431455440       -2.34470736887404       -2.37208648307568
H           -6.71120681152409       -2.55476791344273       -3.18369300612584
C           -5.98735959464452       -3.20667744914691       -1.26856539315599
H           -5.24287137504822       -0.57427871048968       -3.27272035506328
H           -6.63313987088875       -4.07096646997799       -1.24537003672084
C           -3.34641627384722       -2.34138646567758        1.96553905508061
C            1.86113029071654        2.00177709945933        0.28184479056803
N           -3.36103803054003       -2.98815819579720        2.91260200368477
N            2.98084222058554        1.76672546536401        0.43916533097912
C           -5.13419197446658       -2.96339706232565       -0.22239022465953
H           -5.09464208528223       -3.62467160340318        0.62960744728964
C            0.94281292438493        4.74666958560105        0.27076992174270
H            1.99249965241637        4.54942223230906        0.42542907678256
