59
 energy: -108.588469501138 gnorm: 0.000361391234 xtb: 6.5.1 (b24c23e)
Si           0.18417477356090       -1.60882635008556        1.34132185547351
O           -1.01764480442062       -2.12347010041807        0.44115502664588
C           -1.40388628558875       -2.13932729871590       -0.93108316255310
C           -2.66241992336920       -1.32532486591164       -1.07453247489040
H           -0.60358053153424       -1.69719940609456       -1.52678866441583
C           -3.76470356310138       -1.58807756119081       -0.27091252612541
C           -2.71858461206034       -0.28362110388760       -1.99116338854194
C           -4.91344197430433       -0.82790995050795       -0.39624802907092
H           -3.71250236965525       -2.37381072546412        0.46683576991407
C           -3.87048301234590        0.47207818048892       -2.11902085468577
H           -1.85274195998463       -0.06764568174691       -2.60025794505444
C           -4.97060354971968        0.19826693254541       -1.32414788524291
H           -5.76430498194923       -1.03682906896774        0.23451122666538
H           -3.90729248514970        1.28184502156081       -2.83301104419293
H           -5.86871790896189        0.78941527604743       -1.42433934143660
C           -1.59341167893651       -3.60329401847470       -1.35327801593727
C           -0.30439489715144       -4.26260427089483       -1.39779706115542
H           -2.05972375054428       -3.62928684765277       -2.34132895789364
H           -2.24680179704190       -4.10617917234247       -0.63656469477626
C            0.79547531279627       -4.73282359339643       -1.41144684023636
H            1.75239259139143       -5.16068624473924       -1.44079810645174
Cl          -0.25568460768123       -2.29905980013739        3.16277958509579
Cl           2.06454646234460       -2.15639204748194        0.91733291210586
O            0.85971040128809       -0.36130758193642       -1.15281794477837
O            0.23520684213922        0.05645141894760        1.55298842745149
C            1.60552491028384        1.55738366274725       -0.20038570826982
C            0.17625798963965        1.83662512560823        0.03576500086390
C           -1.83235960283228        1.14487461726202        1.12793712408895
C            3.11232056919888        0.01555761152331       -1.14149666361105
C            4.21504472680397        0.83068546568260       -0.78446651506028
C            2.61994023334285        2.40004728291704        0.15012353808213
C            3.96415530704382        2.06028739933150       -0.12206853628133
C           -0.47484960788347        2.85114536997959       -0.59647520076364
C           -1.87573293285478        3.05744998691573       -0.40150378067914
C           -2.55827480005579        2.18633872019396        0.48626806079180
H            2.38869031522439        3.32524501235134        0.65466108026199
H            0.07009909154669        3.49125052897703       -1.27106553789962
N            1.84979913465220        0.37457954425179       -0.84536686362656
N           -0.48830351064325        1.01030930772449        0.87988618680629
C            5.04746143843475        2.87963369736893        0.23770305701345
C            6.33177839689215        2.49176262636721       -0.04721826690013
H            7.16202578944225        3.12186114376352        0.23298827487224
C            6.57753363890657        1.27757974652155       -0.70038797641216
H            7.59449020668480        0.98711715068182       -0.91476762127048
H            4.84949191689907        3.81311877629258        0.74280304783811
C           -2.58235215139077        4.06892392496465       -1.04767391794415
C           -3.93625276164792        4.23353697331736       -0.81944559342643
H           -4.47547517926704        5.01985687391327       -1.32512814221733
C           -4.60211187399454        3.39153148395692        0.06483014930868
H           -2.05835836142772        4.72427635618115       -1.72754199095260
H           -5.65696930707203        3.53129011277237        0.24575449062767
C           -2.45673133772502        0.28060993417635        2.01776274219146
C            3.28963400408220       -1.19599251885904       -1.83843416456210
N           -3.01518753336953       -0.40244018257305        2.76163508375487
N            3.45913644093470       -2.16031191744497       -2.43628067106438
C           -3.92902700044631        2.37793697565507        0.71294300782382
H           -4.44375167280089        1.72173753144212        1.39713812778121
C            5.54122481480364        0.45693160386945       -1.06691681055706
H            5.72454601857010       -0.48107006737499       -1.56823187652201
