59
 energy: -108.586108970984 gnorm: 0.000235795079 xtb: 6.5.1 (b24c23e)
Si          -0.27496464269794       -2.02165487559177        0.17209145873944
O            1.19821639473178       -1.49412457298716       -0.15289186176674
C            2.54668276030552       -1.62453816967466        0.23736996040140
C            2.94577733366597       -0.43919076555691        1.08513727828791
H            3.11826785999139       -1.61821773158604       -0.70119296791340
C            2.07101328692676        0.08215222651023        2.02921719293190
C            4.19994160244659        0.13718649262086        0.93088347552096
C            2.43854152656850        1.17517821031707        2.79340725947852
H            1.09679588176644       -0.36408608601473        2.16072565354434
C            4.57147916886677        1.22048246634200        1.70673369617841
H            4.88407107453638       -0.26427129611689        0.19740831779204
C            3.68914279731342        1.74642564419814        2.63470620975785
H            1.74719573995665        1.57686228342574        3.51933776220950
H            5.54992883512650        1.65940814367301        1.58194505081818
H            3.97633387124840        2.59770401681884        3.23346969601274
C            2.84185694163082       -2.93819381388960        0.97921030147777
C            2.46092136022299       -4.07374183595216        0.16699513565779
H            2.29172594909109       -2.96056413014779        1.92202025491812
H            3.91336912398082       -2.97381561280358        1.19203424563964
C            2.11415307160823       -4.96957654619283       -0.54579344375541
H            1.82220335907489       -5.77649589581053       -1.14854864888979
Cl          -1.12661019958690       -2.88172625977694       -1.39691798303826
Cl          -0.34455794762954       -3.18790398431874        1.81352436196943
O           -1.08963856944384       -0.69855739674509        0.79191945817956
O           -0.35745804788699       -0.03274222830362       -1.77992768047962
C           -1.84983708838608        1.31767774418943       -0.12091920678172
C           -0.43635246933599        1.68844885382043       -0.29965087044084
C            1.53753901445664        1.20140478703425       -1.47726372558035
C           -3.40161645031645       -0.42886096497325        0.38690143810834
C           -4.49305936734576        0.42474131266790        0.06945214846255
C           -2.86420914812132        2.17718936256992       -0.41745030610192
C           -4.22863925610290        1.76389719224162       -0.32183398634276
C            0.15719663380045        2.74229613741468        0.33485404118978
C            1.50384263860393        3.07930211691598        0.07671006150048
C            2.21118204285566        2.28653104671217       -0.86164958972333
H           -2.63207825100681        3.17090962580346       -0.76437302854535
H           -0.41497506350379        3.31897320544777        1.04496276540140
N           -2.12003542791683        0.05838397301330        0.30324466005057
N            0.24638542848458        0.91952038236392       -1.20978144914210
C           -5.29285862369402        2.61489019911458       -0.61332255206185
C           -6.59624852611132        2.16263280703516       -0.52480274614759
H           -7.41396779794306        2.82937486058712       -0.75123016598136
C           -6.85577889908430        0.84828423686714       -0.14795882537173
H           -7.87569931750522        0.50082492724202       -0.08539653911754
H           -5.08546810299037        3.63233164620462       -0.90987357768565
C            2.15726826217267        4.15710526044766        0.69687574642383
C            3.46229511167809        4.44423955950220        0.38897728375951
H            3.96085029514864        5.27524714059797        0.86410648026548
C            4.15692295268663        3.66588767814614       -0.54390378555088
H            1.61262491833804        4.75357393536469        1.41322112642060
H            5.18197593211135        3.90778390295135       -0.77933863992828
C            2.20537546019986        0.36975344646387       -2.39391336761606
C           -3.59620633219494       -1.73452443337022        0.82091874219585
N            2.79714723310066       -0.28954102649161       -3.12384554897338
N           -3.78576704143456       -2.80932296586994        1.19542096070521
C            3.54851802592583        2.60176112490252       -1.15956877697768
H            4.08087879043217        1.99889135803727       -1.87926988616123
C           -5.82312586761801       -0.01588756133893        0.14652913748214
H           -6.02145324121963       -1.03532415405535        0.43973679858813
