59
 energy: -108.587025536291 gnorm: 0.000834212573 xtb: 6.5.1 (b24c23e)
Si          -0.05459865533600        1.77733197868874        1.00446264569211
O            0.92141341383118        1.89056028544051       -0.24140686829943
C            2.30531472594358        2.09274782822141       -0.47547247273953
C            2.90911028436907        0.84052813492842       -1.05960871664654
H            2.79831004772957        2.33917317570284        0.47327788958099
C            2.14486810022601        0.00377460535566       -1.86271410326893
C            4.23900649511365        0.52681229215575       -0.81043503836522
C            2.70629552038993       -1.14089729779079       -2.40143690168832
H            1.10762306290821        0.24194729128529       -2.04084541336096
C            4.79794086708761       -0.61248874153812       -1.36060838656098
H            4.82993043602119        1.17161956603699       -0.17670674775799
C            4.03292954354518       -1.44888703353416       -2.15641879650762
H            2.10383644249217       -1.79251560476766       -3.01692772457739
H            5.83212953887519       -0.85181570091984       -1.16271980291066
H            4.46913080419377       -2.34219006236234       -2.57834792616989
C            2.44247294131618        3.27505387671746       -1.44937000905661
C            1.96882039002128        4.49375703583578       -0.82854632757321
H            1.84675577669400        3.06027779333728       -2.33998654547508
H            3.49134580679463        3.38205979703071       -1.73590267958071
C            1.55249708868441        5.46129188341404       -0.26106899210923
H            1.19787137273728        6.32997856473547        0.20721846129899
Cl           0.55812869259738        2.71857348375461        2.66035956474538
Cl          -1.85877821318625        2.44031151767991        0.47774988111266
O           -1.02138629623822        0.12418823743416       -1.37810130529141
O           -0.28655313224391        0.18970697531494        1.48540273054460
C           -1.88282263150122       -1.41810491844578        0.04343435652619
C           -0.47645377451669       -1.80695030368306        0.27275032095732
C            1.64366740378311       -1.16571670311316        1.17210503096955
C           -3.28801661415688        0.03922181338953       -1.15116877181857
C           -4.43853850531230       -0.54158069704244       -0.56368699249675
C           -2.94810133540481       -2.03173366365383        0.63057377901192
C           -4.26774832368673       -1.61244024083526        0.35037411119019
C            0.04012747381863       -2.97062395560293       -0.20598897156078
C            1.42276027551267       -3.29106042427612       -0.02338649565467
C            2.23173503188479       -2.36671959004436        0.68493030689844
H           -2.77602924827991       -2.83992650213660        1.32466289349181
H           -0.59556742773928       -3.64767520883284       -0.75280580937701
N           -2.04674118515173       -0.38856969156498       -0.85275023111549
N            0.30399517468331       -0.93650859623843        0.95667442487340
C           -5.39993136604749       -2.20618982317045        0.93417331332031
C           -6.65523730414956       -1.75299519145554        0.62217876088953
H           -7.52355382424288       -2.21040218510937        1.07116073530617
C           -6.82267481887452       -0.69323089965721       -0.27913047215903
H           -7.81833424762316       -0.34800010863834       -0.51153921844314
H           -5.26095732550814       -3.02046947297061        1.62925173377504
C            1.99405264542676       -4.45944426321377       -0.51944588348906
C            3.33692925662034       -4.72386253537089       -0.31820808597757
H            3.77044948397239       -5.63221328481917       -0.70775943579991
C            4.12708445549190       -3.82394150259569        0.38727100632228
H            1.37531457612999       -5.15748936801805       -1.06349856769287
H            5.17308375237375       -4.03790342792095        0.54568898400138
C            2.39343306196123       -0.21801931398992        1.84829806983700
C           -3.40038634429129        1.07742768876515       -2.09831840419385
N            3.04237623659422        0.56394352779011        2.39926200157724
N           -3.52671486826259        1.89615970437397       -2.89140128002988
C            3.58800106408684       -2.65675577502962        0.88611587566660
H            4.19984228027016       -1.95464703340408        1.43087633442331
C           -5.73821568162284       -0.09380412759778       -0.86529824437494
H           -5.86143640081419        0.72405019194177       -1.55843758989273
