59
 energy: -108.586947516481 gnorm: 0.000595987198 xtb: 6.5.1 (b24c23e)
Si           0.99729652910575       -0.65048065242807        1.26887855577257
O            1.11247341149527       -1.75098817940339        0.12725383097317
C            1.82097754038826       -1.83517725367293       -1.10765740676762
C            3.29477677286497       -1.65114439188089       -0.87108282961931
H            1.44178871214896       -1.03720071333035       -1.75300724526502
C            3.94145065560439       -2.40444281555814        0.10099710939880
C            4.00730962958757       -0.69692052451197       -1.58360370331261
C            5.28783022638757       -2.21038064258649        0.35058930099317
H            3.38250470744967       -3.12771545239239        0.67656190255343
C            5.35499657036559       -0.50680506604629       -1.33423862832731
H            3.50212623591723       -0.08913048247814       -2.31891406176309
C            5.99716362948192       -1.26377284267696       -0.36933073321285
H            5.78198674422678       -2.79615173628636        1.11136698226948
H            5.89867281193734        0.24358201315085       -1.88738288484853
H            7.04774944785504       -1.11066192231376       -0.17119799436878
C            1.48904254655006       -3.20335720680567       -1.71720176412792
C            0.08833018711459       -3.27535427808886       -2.07615783562781
H            1.71517596407232       -3.98438915503513       -0.98760248462929
H            2.10748304570721       -3.35361004554400       -2.60557408500843
C           -1.07475437308043       -3.29350358730972       -2.35581758736112
H           -2.09108526471673       -3.33770682696163       -2.61153073728313
Cl           2.16459065535461        0.98460179358486        1.21736968246773
Cl           1.31883143071050       -1.54969281309266        3.02951492422419
O            0.31258995478534        0.68562586081297       -1.12274756779675
O           -0.58509154796676       -0.12548844148895        1.41029210116827
C           -1.35856421291741        1.91248465999732       -0.18593449555120
C           -2.11673600941146        0.64857231001531       -0.18161058919012
C           -2.16442780727446       -1.63995255772488        0.49757838928324
C            0.66918180521129        2.91728027629584       -0.83076712621688
C            0.22431720268719        4.18341998121770       -0.37722872376980
C           -1.85661942024909        3.10755234384375        0.24895466521752
C           -1.07764276343248        4.28406569768528        0.17798085346398
C           -3.24354972278545        0.48768052630121       -0.92929567228385
C           -3.90133763721052       -0.77868675522666       -0.99987041544938
C           -3.33122880520632       -1.86346126401317       -0.28349217965771
H           -2.85166829319239        3.14454539184512        0.66417488719997
H           -3.61957424970949        1.31639993535013       -1.50694547957069
N           -0.10278418666494        1.81810157319888       -0.72477010950647
N           -1.62136208453188       -0.38150536683231        0.54649805050008
C           -1.53582715880786        5.53340631571564        0.62894661126487
C           -0.73110718136299        6.64032842028673        0.53404319156585
H           -1.08565200525024        7.59827097660758        0.88269253680611
C            0.55394197679403        6.53822975450796       -0.01249186331454
H            1.17450354129140        7.41875645713924       -0.07712279109615
H           -2.52708641589904        5.60352752326920        1.05105123682967
C           -5.04974552617061       -0.98726793424302       -1.76130674987517
C           -5.63215853841896       -2.23996850239093       -1.82246884692071
H           -6.52101449218612       -2.39243360582291       -2.41516445871681
C           -5.07103554352457       -3.30569807234716       -1.12491791916415
H           -5.47739522123424       -0.15805332411837       -2.30499583816128
H           -5.52722119867941       -4.28242337259822       -1.18195144769177
C           -1.57894892234453       -2.66952223857908        1.22450378454662
C            1.92825209012925        2.74662873702294       -1.43699555813157
N           -1.14039911877221       -3.55120670975530        1.82562939856305
N            2.94094599820710        2.62460294659963       -1.96274357112427
C           -3.93566891014955       -3.12815307044667       -0.36313344242083
H           -3.49547076860991       -3.95345197082777        0.17488521217338
C            1.02952112319627        5.33281123585677       -0.46363396712444
H            2.02010923312987        5.24721104450745       -0.88372941297690
