59
 energy: -108.582941079204 gnorm: 0.000753668989 xtb: 6.5.1 (b24c23e)
Si           1.14210494817741       -0.06020283391489        0.62497766679489
O            1.43283884061049       -1.11558765829186       -0.55325580793063
C            2.33835300275729       -2.20268775747642       -0.56597131547035
C            3.75740756466467       -1.72951801347272       -0.39849747781048
H            2.07255218061278       -2.88570321080284        0.25119839123186
C            4.16732711902784       -0.54986348027693       -1.00517329060989
C            4.65954953627872       -2.45536963582894        0.36577506433839
C            5.46281623842632       -0.09488647017539       -0.84010237601355
H            3.46079680149789        0.02242995286273       -1.58827222254065
C            5.95751474783442       -2.00342779077473        0.52220513060881
H            4.33736275889128       -3.36524452234487        0.84991934999797
C            6.36042863209791       -0.82242436607408       -0.07785314636273
H            5.76707766492250        0.83098558084875       -1.30469041122555
H            6.65294256722116       -2.56899234260064        1.12440213685417
H            7.37132412270680       -0.46602102400019        0.05459498661255
C            2.15365866443757       -2.91528763262611       -1.91653526717733
C            0.78705367301291       -3.35956422113674       -2.08496629886240
H            2.83183862724584       -3.77058342819760       -1.96134963957796
H            2.40553871531081       -2.21568001689005       -2.71743692671997
C           -0.35418169392025       -3.69977114937603       -2.20169453797979
H           -1.34888672610207       -4.00902580107044       -2.32589324157719
Cl           2.02357831203099        1.76393864670044        1.03228068694092
Cl           1.99507747826790       -1.02236764581982        2.28639935830404
O            0.22252017555652        0.84753481548978       -0.87490738852786
O           -0.42879404693735       -0.19558698495075        1.31516874625792
C           -1.72272879671976        1.77911240963415       -0.06170354051353
C           -2.24580540110330        0.40603751702198       -0.02794073890706
C           -1.79924788266109       -1.87518015081841        0.46274403251686
C            0.06157978867248        3.14153854759261       -0.79548243849366
C           -0.63217674913979        4.31631007784481       -0.40890959390993
C           -2.45689824755855        2.87525829150235        0.30280686060009
C           -1.92158444133060        4.18046362395589        0.17167802170826
C           -3.41914300203202        0.07645015973435       -0.64789039398203
C           -3.84899853474268       -1.27831151722761       -0.72465426942893
C           -2.99897079223625       -2.27751202968532       -0.17947365819100
H           -3.44459967093838        2.73857396567362        0.71296930948629
H           -4.00294891154062        0.84835239855185       -1.12248768243873
N           -0.47549125742383        1.92396385015459       -0.58123241652924
N           -1.50030719332337       -0.55142147685041        0.57006964392147
C           -2.61427999269120        5.33079223741824        0.57326452035355
C           -2.05034002124073        6.57423436365633        0.40540575624883
H           -2.58710463236180        7.45618240464396        0.71958671382610
C           -0.78376626513106        6.70570668804029       -0.17009381144038
H           -0.35509564223435        7.68810097053776       -0.29389776119098
H           -3.59246282584856        5.22398180384208        1.01722199360424
C           -5.04087954660778       -1.65909727203937       -1.34624378025086
C           -5.38704789060605       -2.99183403941658       -1.43443585921742
H           -6.30895148830270       -3.27805214025129       -1.91676052471627
C           -4.54825502679003       -3.97292227459052       -0.90672913557931
H           -5.68462996105649       -0.89649950580286       -1.75803458176682
H           -4.82727283819886       -5.01258733696183       -0.98590820031148
C           -0.90663278176168       -2.80784308860244        0.99496230549959
C            1.29599576945389        3.20232586520131       -1.46600164197105
N           -0.19069112077078       -3.60877955792138        1.40838384581194
N            2.26217743038688        3.29648649652449       -2.07937871216503
C           -3.36853198646654       -3.62853753420889       -0.28556691469018
H           -2.71668542308520       -4.38299759904790        0.12814681645425
C           -0.07981270746388        5.59709600873897       -0.57606540427717
H            0.90096413818620        5.69038683335561       -1.01573892961651
