59
 energy: -108.587854323645 gnorm: 0.000573830717 xtb: 6.5.1 (b24c23e)
Si           0.37301748367847       -2.01281774073097        0.07886342538185
O           -1.15045003718476       -1.54665824665511        0.28698119648008
C           -2.38101220977229       -2.17469162757675       -0.05243812009617
C           -3.26561549391069       -1.08041504691345       -0.60774667503797
H           -2.18152026852584       -2.90874755650692       -0.84729518904195
C           -2.77127779290242       -0.35097464389478       -1.68590815476838
C           -4.51085832649881       -0.75318674175822       -0.09138710144735
C           -3.50781820827537        0.67733732473024       -2.24187910665652
H           -1.79819951720277       -0.60046104317951       -2.08460243874536
C           -5.25411463106185        0.26931660179390       -0.65875182409543
H           -4.91415241729005       -1.28846791797626        0.75286649438724
C           -4.75829617689805        0.98555817583279       -1.73314246185051
H           -3.10999234095952        1.23385721218797       -3.07779731615984
H           -6.22717685318139        0.50693979967517       -0.25495733599210
H           -5.34140578022626        1.78127739315307       -2.17212203363634
C           -2.93112010911295       -2.91484019739144        1.17061834405683
C           -2.02832788198339       -3.98346174219629        1.54533916079056
H           -3.90752170526160       -3.33848001173091        0.92403876795641
H           -3.02820240128378       -2.21667752054853        2.00651798357838
C           -1.24721248179590       -4.84661477657745        1.82054049962662
H           -0.57279097454622       -5.60667897813215        2.07943734377367
Cl           1.41225040219594       -2.57900094312968        1.67399006091922
Cl           0.33865228471995       -3.48523151830307       -1.31070592603340
O            1.09128228806492       -0.82080870232629       -0.85519258462163
O            0.37480547818697        0.10919226663229        1.55872933410259
C            1.80065740786796        1.33329964051280       -0.26236272233540
C            0.38465269128183        1.68711886993360       -0.07754587880472
C           -1.55197766782565        1.27942382504225        1.18991978122355
C            3.39876354134600       -0.40828099967657       -0.60954705603785
C            4.46799440623900        0.51199710367537       -0.44103392010406
C            2.79306091779275        2.25683613369546       -0.11733792463466
C            4.16707347770297        1.88057190421410       -0.20995947991562
C           -0.24258176337344        2.67320038926486       -0.78739417639320
C           -1.58537388275721        3.01764819085712       -0.51825376157723
C           -2.25595637844573        2.30380581596825        0.50746519142552
H            2.53567867689123        3.27857081142935        0.10993057052316
H            0.30060410368273        3.18974208934838       -1.56344645919282
N            2.10406429603421        0.04123183351442       -0.53970653596469
N           -0.26309473500664        0.99826312405912        0.91376841043446
C            5.20852440945390        2.79566807813589       -0.06348519414165
C            6.52349649309546        2.37792184011434       -0.14088826327501
H            7.32330469146899        3.09345725120344       -0.02793753058426
C            6.81911687574863        1.03517608745961       -0.36049862209170
H            7.84871888041690        0.71619434570024       -0.41496475956157
H            4.97342825207655        3.83493738682390        0.11174992041361
C           -2.26891881790687        4.03159305252575       -1.20912895476890
C           -3.56613692352347        4.33684241123055       -0.88302826991618
H           -4.08717472629360        5.11954067379855       -1.41314925956861
C           -4.22107167987024        3.64197146862658        0.13953711670009
H           -1.75388777455553        4.56685896074525       -1.99277874732476
H           -5.23886187222822        3.89928669554074        0.38921737068529
C           -2.18636678498357        0.50763694140482        2.17736972622621
C            3.62951528681006       -1.75146432436250       -0.88771622196004
N           -2.74984339314087       -0.10703501651689        2.96671093954330
N            3.85554773121680       -2.85439733846201       -1.13763146222041
C           -3.58360752482782        2.63797663373616        0.82452348802660
H           -4.08632843087389        2.09782210960386        1.61176503138902
C            5.81059936012279        0.10806907380438       -0.50899893467433
H            6.03646052740645       -0.93319488143414       -0.67964775439836
