65
 energy: -114.922614576492 gnorm: 0.000853303747 xtb: 6.5.1 (b24c23e)
Si          -1.09038701102898       -0.53272398071641        0.63705555482483
O           -1.93085302832054        0.31095362672641       -0.44527833182586
C           -3.31515162747769        0.60379781129237       -0.44800226268555
C           -4.13512415559481       -0.65830529538401       -0.42021025402078
H           -3.53906792503691        1.21794168557844        0.43399800125103
C           -3.72389466969967       -1.76097065478646       -1.15744922751177
C           -5.29034549302889       -0.73836042209023        0.34385792022430
C           -4.45205313432316       -2.93603682711848       -1.12002219541725
H           -2.81689787376281       -1.70354112732725       -1.74135815578954
C           -6.02323927636056       -1.91143668605627        0.37205714345976
H           -5.60341976226327        0.11402136494855        0.92841559663735
C           -5.60425105183915       -3.01207525754272       -0.35640485782062
H           -4.11351111500775       -3.79198116363571       -1.68430421837648
H           -6.91791547418131       -1.96991359771766        0.97413954809271
H           -6.17201527559415       -3.93035343184543       -0.32368845822793
C           -3.59826917143170        1.40732231434637       -1.72827813596568
C           -2.80004181226211        2.61291949129306       -1.77818341231434
H           -4.66034803560116        1.66239987848779       -1.75743221378025
H           -3.35653949607124        0.78204770212139       -2.59155766242495
C           -2.11491125413544        3.59322564111549       -1.80629275392908
H           -1.52937586357849        4.46267989262289       -1.84572041172260
Cl          -0.77694595024810       -2.56706790580931        0.82138181856322
Cl          -2.34242727252506       -0.42236453951689        2.32430700567216
O            0.17798745312914       -0.59381184348240       -0.90096019463086
O            0.12837183834526        0.38817541222661        1.42683085495539
C            2.27288852889115       -0.32817155643402        0.01603179884660
C            1.89632312325831        1.10032903666636        0.07857760562862
C            0.19102714541819        2.61674558984948        0.75300798554524
C            1.61680866825513       -2.38783878956308       -0.94007306373932
C            2.81833517268328       -2.99904512025397       -0.50425413242902
C            3.44461318041687       -0.85397852742177        0.50357093109140
C            3.73598562668527       -2.23462780650998        0.26376116108532
C            2.58271117742409        2.08150879735198       -0.59340853314859
C            2.10116475075421        3.43571142704635       -0.53528134902291
C            0.87484671867012        3.69207853240135        0.13189522971022
N            1.36160561912710       -1.10469679476877       -0.62961965588464
N            0.76084614039228        1.38470384836777        0.76131484667504
C            4.90247172752217       -2.86133833422078        0.72560846956504
C            5.15196660114376       -4.18381762877619        0.43638022864316
H            6.05444925009428       -4.65025712297482        0.80091790090804
C            4.24882975604265       -4.92769999158420       -0.32432468223783
H            4.45733210467751       -5.96364974872837       -0.54204511517710
H            5.61338391376440       -2.30279730136099        1.31241318713909
C            2.77416232707404        4.50826447247615       -1.12847336106149
C            2.25279027012006        5.78571463844818       -1.07857588879258
H            2.78808389591530        6.60031802126172       -1.54185387811417
C            1.04080114203907        6.02915821882807       -0.43705448830252
H            3.71501078067285        4.34268356287497       -1.62753976880417
H            0.63895806612735        7.03054859288444       -0.40889967225106
C           -1.05661458505972        2.79295146899410        1.35346147174884
C            0.67573085602772       -3.07004778881846       -1.73005065242651
N           -2.08612109413680        2.98625765462443        1.83092050591842
N           -0.03741412832690       -3.62932408356475       -2.43564663056450
C            0.35681286989877        4.99822863787753        0.16464330893937
H           -0.57967829696828        5.17257877610481        0.67222613540680
C            3.09563384443320       -4.34648635232945       -0.79186330121468
H            2.38320239669993       -4.91064448555729       -1.37341981108079
C            4.38849715511338       -0.01004057302847        1.30006697227408
H            4.55593440587892       -0.46788095146597        2.27393399542501
H            5.35135228939258        0.07562565481586        0.79758476698492
H            3.98500051766702        0.98614600103405        1.45479585439624
C            3.78837897706060        1.76493803434508       -1.42195118421233
H            3.66811283636941        2.18446807430102       -2.41948770729363
H            4.68472911412755        2.19923223034949       -0.97916731665194
H            3.93530459254249        0.69344059872769       -1.51669686075873
