65
 energy: -114.924278170315 gnorm: 0.000427800085 xtb: 6.5.1 (b24c23e)
Si           0.19379872540905       -1.66307201105055        0.51910144067065
O            1.40937463280326       -0.61362706887761        0.59407598101937
C            2.82660274777920       -0.71019854099050        0.47058279544416
C            3.20511467071949       -1.38939880886761       -0.82009915121280
H            3.16599186266372        0.33344973621787        0.44474208942581
C            3.02428301039788       -2.75611010828736       -0.99642775430542
C            3.68870499793894       -0.62926897805738       -1.87706508112207
C            3.31506817966763       -3.34595710182400       -2.21360334759500
H            2.64613479737069       -3.36494735729177       -0.18913986053446
C            3.97623012764410       -1.21925225847960       -3.09487820322524
H            3.83626106621507        0.43297496545380       -1.74903959828847
C            3.78680899635807       -2.57946648655226       -3.26588901278151
H            3.16574898161891       -4.40768541549854       -2.33970240645397
H            4.33600819227285       -0.61047886857414       -3.90978960653812
H            4.00306452527732       -3.04142334245468       -4.21728378474042
C            3.43160963333353       -1.38476583771177        1.70894876534795
C            3.13322284979761       -0.61996095343749        2.90117255284214
H            4.51421222395789       -1.44892719520447        1.57287985371281
H            3.02639143569240       -2.39122397298941        1.82290499034207
C            2.86800776061391        0.03792247962064        3.86442698514139
H            2.65457425631097        0.58648512988139        4.73235936241791
Cl          -0.34374449998742       -2.09950904141698       -1.36157108855144
Cl           0.44997657251658       -3.25724326630228        1.69307663372375
O           -1.00866862047669       -0.82894839050651        1.28845672446315
O           -0.70820175420408        1.17654865509649       -2.06879376367073
C           -2.02425531449205        0.99473644287346        0.16642008927371
C           -0.67235297096211        1.59733022476445        0.17130217390578
C            1.16157804483481        2.12949446108940       -1.19859236700831
C           -3.27120268259017       -0.99577867243315        0.66132089917638
C           -4.42559989918725       -0.43049301970819        0.05832553947851
C           -3.10997024620115        1.60147769779742       -0.39626429287917
C           -4.36078774813799        0.88345617868728       -0.47616394339011
C           -0.03413112606249        2.02745746802694        1.30429781613301
C            1.29750764605859        2.52421068494628        1.20813324262160
C            1.89372947436207        2.58784805505988       -0.07557205331668
N           -2.12017130883439       -0.24619510981673        0.71692245029328
N           -0.08194059418838        1.62459966631298       -1.07559282843523
C           -5.49958605986329        1.41204953731781       -1.08130788902905
C           -6.67310388994055        0.68180846918994       -1.15037791163634
H           -7.54274498242611        1.11147441081182       -1.62366379208392
C           -6.73463461732996       -0.59991473855271       -0.61735806189016
H           -7.65293434072577       -1.16440135226587       -0.67308005750586
H           -5.47009046036237        2.39948483729704       -1.51232501585598
C            2.05235357237090        2.93451909434910        2.32065583695197
C            3.33596385543671        3.39211724916471        2.16739495066804
H            3.90782276071372        3.69630658450398        3.03049658100876
C            3.91393765547502        3.47201118128183        0.89611570276808
H            1.61751303949512        2.88122336169976        3.30461033223475
H            4.92183267226689        3.84264204182338        0.78887300168386
C            1.72545862735236        2.15463319533084       -2.48790749299640
C           -3.24290006759721       -2.27647019398760        1.19271838837941
N            2.22251993134924        2.19706007520684       -3.52180590874364
N           -3.21469035888454       -3.34335909726861        1.63497919687706
C            3.20658990634113        3.07968820443166       -0.21022753651370
H            3.64308600414947        3.13847570164459       -1.19639839219489
C           -5.62423750825043       -1.15607457689562       -0.02129510563373
H           -5.65716413866089       -2.15374560968433        0.38951424194482
C           -0.72723293942663        1.96036140139379        2.62675365008738
H           -0.28643689618586        1.16322821944356        3.22524809518180
H           -0.61896279212461        2.90009470610805        3.16468219131438
H           -1.78694126817576        1.75305848351448        2.50438614917707
C           -2.99497457129590        2.98596259413504       -0.95104007359883
H           -2.97187285702839        2.94540401736857       -2.04020107347692
H           -3.84294305200875        3.59444024830689       -0.64318622231762
H           -2.08416287095311        3.47116491483495       -0.60800802618417
