65
 energy: -114.922584734033 gnorm: 0.000762571866 xtb: 6.5.1 (b24c23e)
Si           1.26076213335751       -0.07086261141831        0.65479971547568
O            1.62434658205635       -1.18065381594434       -0.45070118867566
C            2.66359036153667       -2.14066217172723       -0.42612430888601
C            4.00939615524089       -1.47518482697000       -0.31332035893126
H            2.49889304472979       -2.80641893987074        0.43092433260825
C            4.25609107465254       -0.30268097798404       -1.01568679049777
C            5.00338035463264       -2.01180845810115        0.49233336187367
C            5.47964008549530        0.33234412960071       -0.90559397336837
H            3.47693804439519        0.12408615352865       -1.63026846220394
C            6.23028605874969       -1.38020159285326        0.59395991328256
H            4.80814212233199       -2.91538901732392        1.05064084756742
C            6.46973420934999       -0.20739887197113       -0.10229505938581
H            5.65484861925305        1.25113666303786       -1.44478653943291
H            6.99777892307322       -1.79900429525807        1.22810556163067
H            7.42482124087091        0.28929626467965       -0.01316786007388
C            2.56086304611742       -2.93940570889229       -1.73610195430149
C            1.26490605436818       -3.56968673302992       -1.86602620451243
H            3.34722112256176       -3.69786505350574       -1.75053440057445
H            2.70981267379497       -2.25299637872604       -2.57348515288980
C            0.17969271332860       -4.06466042773817       -1.96059173497811
H           -0.76221877454713       -4.51514071535580       -2.06064473589862
Cl           2.03280888308248        1.82051303724999        0.95542304245388
Cl           2.15410722662120       -0.87592913861075        2.37887787010687
O            0.31060243497325        0.69665643529266       -0.93446088001495
O           -0.30975761466134       -0.24393162665603        1.32944023776974
C           -1.67041883238828        1.53450861905452       -0.11695827823186
C           -2.09613591646631        0.11841356919812       -0.13060123362209
C           -1.48384856037013       -2.08678901433018        0.52182338345399
C            0.02226899379987        2.97759266420827       -0.91489055619900
C           -0.71121522500585        4.11168570967767       -0.48730980381783
C           -2.42629231784745        2.57828091691437        0.35873346372135
C           -1.94026685338386        3.91451026267648        0.19594294079248
C           -3.14383540999339       -0.33614827935145       -0.89271731526327
C           -3.44148271871284       -1.74350768723441       -0.90300958143652
C           -2.58194157986262       -2.62438021434160       -0.19599665142338
N           -0.44814432165069        1.74095858104327       -0.67698397376047
N           -1.32383625906117       -0.73971962738199        0.57911663323451
C           -2.63707106987869        5.04279232561405        0.65259613464283
C           -2.14257125342632        6.30926011333979        0.43782262052474
H           -2.69169229931317        7.16617943383786        0.79709225741831
C           -0.93730842027311        6.49624407465287       -0.24067153560088
H           -0.56180276523040        7.49494836255745       -0.40093695758139
H           -3.57089515787398        4.91889186479679        1.17640713702985
C           -4.52673167935990       -2.28607116669941       -1.59793002994932
C           -4.75343934009982       -3.64801186288380       -1.60491268923282
H           -5.59707911959492       -4.04702481130848       -2.14701862508609
C           -3.90056833236648       -4.50912866087884       -0.91896613393382
H           -5.20138590090645       -1.63747817626655       -2.13251038412890
H           -4.08471620860962       -5.57258997787883       -0.93362682290127
C           -0.56096564013241       -2.90932939086738        1.16998623141764
C            1.23154131635640        3.09298322226008       -1.62179361100256
N            0.17661839340457       -3.62829154873082        1.68391136907083
N            2.17615362520463        3.22103947358451       -2.26237785419734
C           -2.82673735763485       -4.00817072236663       -0.21981862877064
H           -2.16106356988354       -4.66248400101941        0.32226866420991
C           -0.22752751348585        5.41400654611424       -0.70001497453818
H            0.71036814753054        5.54156228425466       -1.21786708525952
C           -3.72169244913147        2.32532253334267        1.06273275395530
H           -3.69254946929842        2.77225075911482        2.05538605565090
H           -4.55334571464000        2.76974936686908        0.51699690049335
H           -3.90449130698776        1.26047369711210        1.17162788238135
C           -3.95010382625536        0.59175131898613       -1.74674859185415
H           -3.98823831483062        0.21163829680985       -2.76642604692020
H           -4.97236653442748        0.66520099431210       -1.37571498672035
H           -3.51892201324541        1.58778882968545       -1.76892035471984
