65
 energy: -114.837450294860 gnorm: 0.000549326263 xtb: 6.5.1 (b24c23e)
Si           0.79527192699619       -1.10189844249450        0.98213073146785
O            2.49401215473182       -1.59963620875450        0.58688917712359
C            3.12004590114782       -1.49597123943955       -0.51778650306248
C            4.53506320421824       -1.54144127069289       -0.60167985497105
H            2.54781470651315       -1.44254088760255       -1.44407140136919
C            5.32571961018928       -1.64392709330140        0.55991552552355
C            5.17346880564742       -1.48600091593638       -1.85556469455130
C            6.69751751207508       -1.69253038285472        0.46233825967185
H            4.82753631416243       -1.68484136991882        1.51619048746456
C            6.54644615623114       -1.53547506540171       -1.93699931993204
H            4.57073582296546       -1.40434637475155       -2.74760354451837
C            7.31435464892230       -1.63929139537392       -0.78239191023869
H            7.29899931182863       -1.77343830913215        1.35559680312920
H            7.03128785904929       -1.49387294492794       -2.90107848679767
H            8.39079217684316       -1.67924851107453       -0.85352520475866
C            3.15907882980112        1.39439463914188       -0.82244241434878
C            2.24217744025187        1.13646560285305        0.05861141731257
H            2.91365516150187        1.68246390278597       -1.83215256260695
H            4.20432348023765        1.40051955865938       -0.55944817567733
C            1.34160192864180        0.72893870946349        0.88928498218248
H            0.86389429895509        1.41252356207109        1.57328496490519
Cl           0.06785432631456       -2.10034566393634       -0.68651364479060
Cl           1.02247055422219       -1.93104078838416        2.81412526594030
O           -0.92657339609060       -0.54781380175251        1.45492799668290
O           -0.97058961401435        1.02844111928791       -2.13940690859507
C           -2.44974802154118        0.26723362746482       -0.10304847794766
C           -1.67273207609364        1.52401988902973       -0.02724495091542
C           -0.16104804156655        2.91276798783239       -1.16689052565954
C           -2.64567655578988       -1.93762607050884        0.73401518611225
C           -3.72474502029450       -2.19675387617088       -0.14963161439034
C           -3.51687835502646        0.10815544860198       -0.94955523964176
C           -4.16131724586784       -1.16982848112325       -1.02686346523592
C           -1.66814032240463        2.32541083120700        1.08534826864017
C           -0.83376363802022        3.48129434978618        1.11041780705272
C           -0.07266091477849        3.77675594311069       -0.04858833678819
N           -2.02312444251092       -0.73517052834090        0.71049657890584
N           -0.92650981343027        1.80343352010130       -1.15359582678236
C           -5.19251135504065       -1.45711984857746       -1.92902720858559
C           -5.78600623638140       -2.70092017770323       -1.94989262487168
H           -6.57719549915526       -2.90510923159865       -2.65515732035953
C           -5.37124170711775       -3.69774701478191       -1.06817418884539
H           -5.84739019896189       -4.66600646941561       -1.08934270960600
H           -5.51887346093703       -0.70395113686444       -2.62740500868534
C           -0.70831410179150        4.32578824429504        2.22877085356511
C            0.12164778629541        5.41629483234270        2.19267765946237
H            0.21218657607483        6.05258047458303        3.05970149201112
C            0.85787824017856        5.71229464589290        1.03980137767056
H           -1.25861132510731        4.10488497817883        3.12889249310215
H            1.50425519508439        6.57626148699566        1.02647262956358
C            0.58068419263769        3.16697113730132       -2.33609502232799
C           -2.19540681473332       -2.91344853906482        1.62902302506355
N            1.19651166050258        3.39776930636157       -3.27655424114959
N           -1.87353810397444       -3.73879093059563        2.36321597399071
C            0.76572483646378        4.90715593565305       -0.06427670420715
H            1.33580150072687        5.12003889392928       -0.95570298036801
C           -4.35148309857586       -3.45464277087176       -0.17969144126311
H           -4.01097449801771       -4.22293113880983        0.49736466488540
C           -2.52219674243110        1.96755604967075        2.25929603522375
H           -1.91515491765756        1.46509504028539        3.01316934164505
H           -2.96522411194343        2.85534346350526        2.70323172207580
H           -3.32256037959570        1.29213003254876        1.96743529682868
C           -3.98103589818714        1.25393213817450       -1.79047643767420
H           -3.56272443610558        1.16127818750793       -2.79339845499782
H           -5.06565172284953        1.26837658606315       -1.86306459759940
H           -3.65273805342873        2.20336875549091       -1.37306801309030
