65
 energy: -114.928118742705 gnorm: 0.000882026831 xtb: 6.5.1 (b24c23e)
Si           0.24925113792062       -2.10164985250185       -0.17395547258429
O           -1.23884646478817       -1.60361999878112        0.16780982755253
C           -2.50199255971407       -2.21264176577374       -0.07471283223054
C           -3.42189272894770       -1.10319900744067       -0.53374776218583
H           -2.37865294864179       -2.93125634856024       -0.89876289302535
C           -3.02778601692049       -0.37562789345132       -1.65340023657986
C           -4.60851650098046       -0.76819740673526        0.10133919486702
C           -3.80943234665668        0.65538810798690       -2.13748519701316
H           -2.09791576008972       -0.63011733987709       -2.14193888875740
C           -5.39758835124384        0.25763799837541       -0.39386862185739
H           -4.93008799004596       -1.29999075827901        0.98171060716772
C           -5.00473730615217        0.96868566908546       -1.51278298109230
H           -3.49238314724502        1.20961990728800       -3.00799025496523
H           -6.32510185461887        0.50212844832772        0.10243859389716
H           -5.62498495540045        1.76489310506978       -1.89655753178880
C           -2.95387408857540       -2.97644563077747        1.17340366918846
C           -2.04609094892913       -4.07435911301260        1.43358324517449
H           -3.95798441338041       -3.37292456295618        1.00570506089136
H           -2.96032264612244       -2.30255204386030        2.03420066981867
C           -1.26330307554121       -4.96310219864138        1.60229841504609
H           -0.58941427298100       -5.74702240911424        1.77751417250105
Cl           1.37763827568008       -2.77503944455331        1.31606765099759
Cl           0.08686868272610       -3.46907886398117       -1.65224529968209
O            0.93607319161706       -0.83445168867978       -1.02196662298702
O            0.37257762058972       -0.04783004026078        1.57663726528020
C            1.80226767880309        1.16764263914332       -0.16876441439986
C            0.38113045463548        1.55755027399926       -0.02344812439941
C           -1.53892322886443        1.16199085156869        1.27172534040598
C            3.27421065573694       -0.62238215385705       -0.77026629893528
C            4.39575749683145        0.16102645218925       -0.39143701027180
C            2.84085893636393        1.96971819525483        0.21610048658928
C            4.19223438388724        1.47702525868979        0.10009237903414
C           -0.24784180670570        2.50750299274420       -0.78772003039251
C           -1.59497854770093        2.86017025500028       -0.48176753401527
C           -2.23782519372936        2.18803162422531        0.58783741690508
N            2.02169071071025       -0.07955974047063       -0.66028542404063
N           -0.26172105884913        0.86732260029595        0.97111522280145
C            5.30678769147229        2.23539342952824        0.45832667990220
C            6.58459252799235        1.71918810306510        0.34160422976775
H            7.43304370878753        2.32382012847556        0.62332718497290
C            6.77915082532923        0.42712412521795       -0.13350860861663
H            7.77851657757546        0.02875211894664       -0.21872748024772
H            5.17757016283586        3.23890520130705        0.83010069827059
C           -2.30459860268883        3.85959379567777       -1.16970062764502
C           -3.58286247808445        4.19297491576578       -0.79764703958399
H           -4.11298722676482        4.96778807040524       -1.33056239037220
C           -4.20348531993882        3.54186546386951        0.27168046166903
H           -1.83478631847040        4.37683785795482       -1.99063599133462
H           -5.20507071278236        3.82156477063728        0.55957049740971
C           -2.16615350597151        0.39728498220801        2.26804096479784
C            3.41301812526784       -1.90390538154720       -1.28889675262720
N           -2.71708733816333       -0.21791193773285        3.06613789333608
N            3.56025682560406       -2.95653492321690       -1.73792844916029
C           -3.54646640215437        2.54930512181249        0.95241870020439
H           -4.01784263990536        2.03578759865693        1.77606683307218
C            5.70044629190156       -0.34744692953076       -0.49704172395385
H            5.83911826126236       -1.35155369290747       -0.86706676023590
C            2.59782295195705        3.33086391613981        0.79094792473182
H            3.05368640930910        3.40150329048185        1.77754451844099
H            3.04199198075864        4.09805019045951        0.15700948064354
H            1.53622743078722        3.53601282894512        0.89024276360862
C            0.47317734311279        3.16876361961952       -1.91982614500506
H           -0.08800290238649        3.03654369365964       -2.84345898054963
H            0.57668964677145        4.23764478106682       -1.73669740372556
H            1.46338767391530        2.74263474336959       -2.05233926469126
