65
 energy: -114.922106931455 gnorm: 0.000712790379 xtb: 6.5.1 (b24c23e)
Si           0.90575713792923       -0.99617565480595        0.82947699022346
O            2.29205508402025       -1.30182583868521        0.08545016093838
C            3.63957760377717       -1.25308487808422        0.51562119305500
C            4.51364905205705       -0.76428736856787       -0.60906944184911
H            3.71335837576567       -0.56958304379628        1.36928339298924
C            4.22801213943115       -1.11233669983284       -1.92149450763561
C            5.63341258802257        0.00846574301238       -0.33507825118416
C            5.05159324756310       -0.68872631225324       -2.94934285154124
H            3.34857385673615       -1.70253623007324       -2.13071350811163
C            6.45916796437147        0.42544262029820       -1.36305639750011
H            5.85008550092874        0.29139867476325        0.68411124508593
C            6.17063502966276        0.07719828195742       -2.67185169192970
H            4.82009359533834       -0.95862628544968       -3.96966041492738
H            7.32721155811973        1.02948287693879       -1.14349077008597
H            6.81431573107153        0.40653243858781       -3.47453080056115
C            4.07726564398015       -2.66486573611264        0.95220038098609
C            3.29813733980052       -3.11840217313543        2.08384742647010
H            5.13829010180444       -2.64083998167308        1.21168963210209
H            3.93279825159120       -3.35039048799825        0.11270109134126
C            2.60249874234120       -3.44994897144659        2.99949243356939
H            2.01637569404442       -3.75822935436032        3.81294198033604
Cl           1.18820305432192       -0.17858847029750        2.62436603927428
Cl          -0.11915462824878       -2.70807241404814        0.64775862566345
O            0.12796042500150       -0.00893092066203       -0.27290720315669
O           -1.62322675690862       -0.30354884261196        1.84979003209380
C           -1.70770522662074        1.42234647796416       -0.05273402316904
C           -2.50335355935600        0.17963711829477       -0.18503000851160
C           -3.11848866594333       -1.77598232085801        0.96808874447300
C            0.51805293632861        2.29123227421748        0.13944526477010
C           -0.00233268505563        3.59879367200101        0.33540620062469
C           -2.26790533289822        2.65438918476176        0.14036616273192
C           -1.40732749231650        3.79904599427326        0.32548361091983
C           -3.26194067540443       -0.14745120481844       -1.27937517717122
C           -4.02043144035038       -1.35404398941639       -1.26064401451903
C           -3.94989717883260       -2.17425018535445       -0.10613687657541
N           -0.35893042452050        1.25800568953938       -0.07610717302886
N           -2.40758541373863       -0.63810190046621        0.91340699624490
C           -1.89895697309663        5.09077320941838        0.50947033611525
C           -1.03972815429229        6.15769310382581        0.70445180056643
H           -1.44203805066236        7.14930135711070        0.84478623801934
C            0.33493675547828        5.95591440986546        0.72377026325690
H            1.00054509151869        6.79081239520902        0.88141739509318
H           -2.96216808953816        5.26807566900444        0.49960768363623
C           -4.84255889077476       -1.76437781620345       -2.32582503912712
C           -5.55916160153203       -2.93129766719591       -2.24730661213797
H           -6.18723368999745       -3.23344846701216       -3.07164731627979
C           -5.48446940192223       -3.73710819467121       -1.10587411082301
H           -4.91204503293441       -1.15308537414863       -3.21107832692134
H           -6.05314266602274       -4.65308959226075       -1.06113534630714
C           -3.00683582890989       -2.55154162867669        2.13876916746776
C            1.88125728631122        2.03373836725422        0.14552238997533
N           -2.96238305722873       -3.18424227395698        3.09448794397905
N            3.02233892958347        1.85246878548550        0.15571972977141
C           -4.69355039589236       -3.36760544633461       -0.04960114953778
H           -4.62408461734100       -3.98094947385760        0.83560102863606
C            0.85293975900159        4.69264973477407        0.54115771930252
H            1.91897846742841        4.52490775021977        0.55272746389077
C           -3.75377467937862        2.82935332059846        0.20367626279761
H           -4.03034332566026        3.30201491066771        1.14513234384732
H           -4.09874575443517        3.46768791212380       -0.60973550376265
H           -4.26829774294661        1.87549079161432        0.13700486941892
C           -3.28385338561397        0.74362437977896       -2.48116454518065
H           -2.98122189209848        0.18206814328355       -3.36350541240603
H           -4.28816913867351        1.12923670753423       -2.65254792897141
H           -2.60628209418054        1.58297320474605       -2.35581983675602
