65
 energy: -114.931594695434 gnorm: 0.000797973069 xtb: 6.5.1 (b24c23e)
Si           0.04350537198933        1.34313143467329        1.53148068034400
O            1.02223249053851        1.11315213341787        0.29869593669637
C            1.97281937052189        1.80867220069691       -0.49633529964464
C            2.97561838210822        0.77528588155673       -0.94707721139259
H            2.46172920424165        2.56192086307110        0.13456591511278
C            2.58597997755348       -0.24406022240144       -1.80828803375246
C            4.27463561055323        0.79901659808472       -0.45869981044046
C            3.49828304169460       -1.20875757373093       -2.19573797607238
H            1.56691273647847       -0.28790546189681       -2.15926327092591
C            5.18171121286842       -0.17330695148372       -0.84244354724667
H            4.57640171799166        1.57904002858661        0.22543613749433
C            4.79643734653568       -1.17526211735535       -1.71594011023421
H            3.19398214827565       -1.99311844540757       -2.87246880252128
H            6.18974162067839       -0.14806332553741       -0.45615863048806
H            5.50482393912216       -1.93226473632361       -2.01817207155093
C            1.25232918604748        2.49312034532564       -1.66510767288437
C            0.48763380855800        3.62744693087834       -1.19494991617357
H            0.57974951076918        1.76949610618233       -2.13402865355914
H            1.99214339094952        2.81968500923025       -2.39931999003144
C           -0.13072443293487        4.54838880564684       -0.74602013471071
H           -0.69080103574001        5.35821854879829       -0.38512112574167
Cl           0.82076054726189        2.34013769298773        3.07007409130351
Cl          -1.76428908629272        2.09140263862713        1.06713308261840
O           -0.65731511171796       -0.18058845762683       -1.89495651423232
O           -0.25716222326953       -0.24007856822447        1.96527756169880
C           -1.68117636410722       -1.15011491804378       -0.09779024685698
C           -0.36624057249770       -1.77655799588837        0.16929864359335
C            1.60547909355658       -1.63522494469020        1.52171805388078
C           -2.81908165083882        0.36867840025208       -1.48377524908952
C           -3.98651881157067        0.25730031600219       -0.69211824192269
C           -2.77762285916485       -1.33130323555755        0.70476182554081
C           -3.97406199937487       -0.60978535343037        0.42863269139464
C            0.17524510015443       -2.74749621139146       -0.61975911760370
C            1.52223824636057       -3.20199121409204       -0.36154090420027
C            2.24036857980048       -2.61080144234881        0.71010378343766
N           -1.69484510866748       -0.31019288930374       -1.18984823648494
N            0.29623220371713       -1.30160976212291        1.26426317000169
C           -5.13244038848672       -0.69883342947660        1.22151133126680
C           -6.24988803092380        0.03184740357280        0.91049261793453
H           -7.13122906337057       -0.04243888863092        1.52934088542886
C           -6.25934579266690        0.87921887773769       -0.20353354308119
H           -7.14779911302491        1.44662558215677       -0.43439328520979
H           -5.13745324937055       -1.34008992105156        2.08795194384203
C            2.16155157591438       -4.16185477168143       -1.14286861066954
C            3.46817507694035       -4.53644861186851       -0.88242752068761
H            3.94248051178254       -5.28587883037815       -1.49773297112768
C            4.17102390280089       -3.94752780229810        0.16114087006921
H            1.63933645259439       -4.61915023827006       -1.96782734716114
H            5.19161525208985       -4.23918370765303        0.35724290746277
C            2.26576434149072       -0.99144714230276        2.55652399792792
C           -2.76986445959040        1.22005860113348       -2.60477187759204
N            2.83176027905635       -0.45538880547190        3.40938769448146
N           -2.74350679774970        1.90812801887075       -3.52227618772156
C            3.56957272284269       -2.99226802662163        0.94957826739893
H            4.10739115282223       -2.52551468260602        1.76044466780672
C           -5.14697923094690        0.99368846481264       -0.99429887741121
H           -5.13872713201179        1.64970308867599       -1.85141265933366
C           -0.60443649586828       -3.31227753864169       -1.76533609049249
H           -0.19816889912892       -2.94518880308371       -2.70772760920353
H           -0.55168375938237       -4.39943596325737       -1.76533418139707
H           -1.65072975356640       -3.02203022126516       -1.70916611726939
C           -2.70766087626848       -2.27819042524794        1.86022824614467
H           -2.69463844690944       -1.71924444354716        2.79541338099754
H           -3.57360254841509       -2.93721534767209        1.86537578324188
H           -1.80967081259306       -2.88815954336309        1.81292547912586
