77
 energy: -129.328315666895 gnorm: 0.000434068239 xtb: 6.5.1 (b24c23e)
Si          -0.11639500813447        0.69092166231418       -1.22308506400560
O           -0.48867131202353        1.88140703304803       -0.19725564946959
C           -0.00767963208190        2.26133676195522        1.06804159385817
C            0.83575460360451        3.51019799521444        0.96674558295540
H            0.61520320075637        1.45916071094816        1.47639856787634
C            0.94254171529014        4.21739070348187       -0.22098032635561
C            1.53907121665941        3.94725223152943        2.08358143136936
C            1.74920198430077        5.34034471058944       -0.29307509049430
H            0.39457714556392        3.88268273952542       -1.08778808816085
C            2.34056380603952        5.07085079533811        2.01125919985559
H            1.45905518762607        3.40044004925435        3.01303292782016
C            2.45064325628860        5.76881696913085        0.81972974603437
H            1.82787215086176        5.88092790408320       -1.22446642604365
H            2.88356983626523        5.40167964459264        2.88519983978099
H            3.08085979781503        6.64421195611053        0.76172491200525
C           -1.22986801516864        2.46621646931429        1.98640763367449
C           -1.72557871804038        1.19427018995033        2.46425267299376
H           -0.95309129234138        3.09236023387266        2.83777978395565
H           -2.00490668401344        2.97448862691942        1.40718014025493
C           -2.09206032180899        0.12164517945337        2.84964867007147
H           -2.43702522078752       -0.80669791636291        3.19633285981240
Cl           1.61531256308299        0.46364954479566       -2.33177110577655
Cl          -1.14919716515088        1.69788543805014       -2.76930909121791
O            0.67565521410151       -0.25433047066592        0.21689695805113
O           -1.12444064178166       -0.66825022705521       -1.48604026844136
C            0.55491679654634       -2.50555311597741       -0.26230733106828
C           -0.87609715257178       -2.40777255045986        0.06842727677752
C           -2.94169588887676       -1.23498252120941       -0.14739285406423
C            2.65936413035232       -1.40810730706099       -0.12290230503109
C            3.32020396894231       -2.59034360657205       -0.52761606859507
C            1.14235379336010       -3.67495490482097       -0.65373986915997
C            2.54789951428645       -3.74498901452369       -0.83797090963640
C           -1.41142048578979       -3.24518570571420        1.00519289497594
C           -2.76883570121269       -3.11400082571309        1.41081045304264
C           -3.53858129297151       -2.07254052383318        0.81666898458364
H            0.53142833505842       -4.54544899504844       -0.82927860535300
C            3.18739939773801       -4.91085173668383       -1.26884945321552
H           -0.78686307065988       -3.99515296401087        1.46320465980813
C           -3.34520037864322       -3.94442976266407        2.37128115332634
C           -4.89053767460343       -1.93965030667729        1.19796126419753
C           -3.65325755191976       -0.13267461758505       -0.79774335970951
N            1.31191581575560       -1.40143535547938       -0.04420038612035
N           -1.64766609838416       -1.45593780236859       -0.50963768239129
C            3.35618483339741       -0.18403862595536        0.28358868005900
C            4.72358415042811       -2.67855838472098       -0.60901058536204
C            4.56201764689511       -4.95560930282705       -1.37620630041683
C            5.32523042111096       -3.84145344599183       -1.03215166864499
H            5.32133396361608       -1.82503028520850       -0.33272965281977
H            2.58898638607963       -5.77591511781503       -1.51264903191346
H            5.04867757195377       -5.85782736419020       -1.71378968568171
H            6.40172893297884       -3.89271997506833       -1.09602236780862
C           -4.66622211557943       -3.77401718892147        2.74395142818810
C           -5.43290394375482       -2.77615614098914        2.14703015725601
H           -5.49547423062539       -1.17940682472545        0.73093292823929
H           -2.74538374795910       -4.72275579649948        2.81958186797772
H           -5.10443272351854       -4.41851946899733        3.49030895491669
H           -6.46819504571585       -2.65893597264471        2.43026717085918
C            4.23807228254734        0.46905229799303       -0.57547307572040
C            3.12103964170039        0.34857274130731        1.55067673295452
C            4.61121876506239        2.16753602484830        1.08042702227355
C            3.75398145453043        1.51114443645253        1.94679800391928
C            4.85096663677497        1.64208164760307       -0.17870028818999
H            4.39809878048968        0.07721363309759       -1.56736558805633
H            5.51436153932170        2.15319486966804       -0.85994518499684
H            5.08705537175840        3.08725470265085        1.38526869868906
H            3.57792538819572        1.90664447479380        2.93567394138572
H            2.45334865900722       -0.16263670575538        2.22998007021625
C           -3.78894171023295       -0.08717660084782       -2.18394606406825
C           -4.19393363713397        0.89564699260822       -0.02525012023279
C           -4.97786163149320        1.98834399365725       -2.01240089043639
C           -4.84620033619678        1.95010200396118       -0.63370912348235
C           -4.45096841593537        0.96662574315082       -2.78328980158982
H           -3.37272639234007       -0.87733804723238       -2.78985191230331
H           -4.54149211883638        0.99627154118697       -3.85783389778532
H           -5.48178498405185        2.81794844792335       -2.48475791907886
H           -5.24694540382856        2.75045658697122       -0.02847301490120
H           -4.06381911194890        0.87505379154837        1.04692724377302
