77
 energy: -129.327973771355 gnorm: 0.000442510729 xtb: 6.5.1 (b24c23e)
Si           0.18668631845989       -0.99880531076809        0.83269838570452
O           -0.72725752206979       -1.41034143497910       -0.44030002709155
C           -1.60452587013585       -2.47215159915466       -0.69449060197115
C           -2.80988927757785       -1.93893824476053       -1.42760314416866
H           -1.91254008847292       -2.92795500559249        0.25568323785294
C           -2.70838880270083       -0.78071723816051       -2.18791521105379
C           -4.03183870537535       -2.59396100356481       -1.34718277801392
C           -3.81782665795928       -0.26910093820282       -2.83793680574607
H           -1.75696412664152       -0.27423485263009       -2.24528967296047
C           -5.13758925170093       -2.08962491783977       -2.00874740623647
H           -4.11618861583183       -3.49197926779125       -0.75249432505456
C           -5.03520811359153       -0.92292800323946       -2.74912109420128
H           -3.73260530729118        0.64433975813311       -3.40918034598054
H           -6.08593213525975       -2.60223602395676       -1.93875388368744
H           -5.90293483163939       -0.52319972778295       -3.25307393948503
C           -0.87908687631087       -3.52809600747882       -1.55538905414407
C            0.30035752774993       -4.01072965925677       -0.87047828979693
H           -1.56418302939387       -4.35379915836462       -1.76206146007347
H           -0.58259780689670       -3.06229047359999       -2.49929870586710
C            1.28402002091776       -4.34914926688941       -0.27955726092712
H            2.14291252142058       -4.65538679195093        0.23800846878102
Cl          -1.00692103266533       -2.01545931939644        2.31862986756252
Cl           1.93902174064639       -1.59513635322822        1.74957681224954
O            1.16004293535645       -0.17840874657832       -0.51127068823194
O           -0.20214158171289        0.54182731408040        1.50079729763829
C            1.58832501384955        1.99943037738802        0.06747351609387
C            0.13666019755685        2.21044815902453       -0.08571517014453
C           -2.07503687278460        1.61336620640258        0.58905576163767
C            3.38759037593379        0.47863707861095       -0.26235163826252
C            4.31758229344182        1.50458772203729        0.04143784143922
C            2.43845877273931        3.01239949992029        0.40412856820566
C            3.84045596436911        2.79048686686708        0.42175787791270
C           -0.34096163828808        3.10649949994070       -0.99583673542597
C           -1.74236465027829        3.27354444503266       -1.18111523294051
C           -2.61861319100194        2.52038339314509       -0.34779737222741
H            2.04228820770911        3.98489925493826        0.64726240923390
C            4.74779180343277        3.79962390071101        0.75682710801534
H            0.35101055487967        3.67449979029629       -1.59642636003394
C           -2.26514809345921        4.14642166581454       -2.13462556523998
C           -4.00615584290293        2.74198639026504       -0.47250012751732
C           -2.88511927322649        0.81213641926334        1.50292218889435
N            2.06724256888606        0.76589023449182       -0.23003527173238
N           -0.72121209836573        1.49040830221526        0.67542134368689
C            3.78912238566747       -0.87360861968700       -0.64892831634313
C            5.71042807962960        1.31613788489432       -0.06073174857247
C            6.10619158449803        3.56863946395880        0.69465303906015
C            6.58077895037852        2.33056207632255        0.26659971774160
H            6.09031323652591        0.37040569616485       -0.41144763509865
H            4.36771611022619        4.76434250290462        1.05810621786166
H            6.80141519297090        4.35069097147638        0.95881145557946
H            7.64484189399880        2.16651480020391        0.18633172835586
C           -3.63170841333263        4.30535413253590       -2.26658350095549
C           -4.49355751447543        3.61186419081139       -1.42093997500123
H           -4.68408894222161        2.23139823200791        0.19146401003437
H           -1.58588508192797        4.69997562689102       -2.76589856257560
H           -4.02920385946550        4.97873749176949       -3.01034236037029
H           -5.55934508381594        3.76286067064889       -1.50566456721339
C            4.68613345148978       -1.59716449174347        0.13907471406554
C            3.26809016273756       -1.46608670587365       -1.79898237260754
C            4.53707922825979       -3.45632307145159       -1.37070215984100
C            3.64222922312035       -2.74743817204895       -2.15408183740282
C            5.05418265903399       -2.87760576400526       -0.22246387354385
H            5.04998680598328       -1.16775821404825        1.05935509347744
H            5.73893045846017       -3.43201230450827        0.40223788507570
H            4.82196087943354       -4.46042925845755       -1.64858605838568
H            3.22954766686901       -3.19765161314331       -3.04440354163126
H            2.57344772448593       -0.91859054628493       -2.41665120494196
C           -2.61736469583241        0.82008837788892        2.87326107411927
C           -3.92816044551860        0.01858078874375        1.02370292318508
C           -4.39473141908143       -0.74608020742473        3.24936177531722
C           -4.66847062363559       -0.75893541414349        1.89187963965759
C           -3.37154803774349        0.05039465389081        3.73567444967097
H           -1.81678227991313        1.43325211646829        3.25881958760916
H           -3.15102430253440        0.06224192786245        4.79223684422884
H           -4.96956382893646       -1.36152398105439        3.92465308166797
H           -5.45587379912384       -1.38628924041066        1.50065544472170
H           -4.12689089002818       -0.01661693456948       -0.03556848363395
