77
 energy: -129.331556282992 gnorm: 0.000640808258 xtb: 6.5.1 (b24c23e)
Si          -0.04512550848750       -0.98786377408042       -0.03654906025399
O            1.42877634087062       -0.69831164889677        0.59138036550250
C            2.18970308230326       -1.52708519787297        1.43951573964808
C            2.70723836959131       -2.74230114002096        0.71481153574296
H            1.55986676731920       -1.84039257996441        2.27975486491286
C            3.00815250797070       -2.66940631777804       -0.63717903630211
C            2.91811544730836       -3.93166543100036        1.39791761357522
C            3.50567268227049       -3.77523328042188       -1.30210341181768
H            2.83384567752520       -1.74677549468955       -1.16922243371787
C            3.42229644565255       -5.03470557879062        0.73366617591473
H            2.67098944723732       -3.99547306692228        2.44751730651604
C            3.71720834712112       -4.95901865102997       -0.61730158440305
H            3.72517323528349       -3.70995312603981       -2.35755733199707
H            3.57787013959670       -5.95926824903913        1.27009900836678
H            4.10473991107046       -5.82374976885971       -1.13583095961635
C            3.38327539509732       -0.71372094872159        1.97477530276008
C            2.95770098740746        0.56151544208709        2.50751900909159
H            3.87750631913638       -1.29786617270678        2.75508065460683
H            4.08875536647076       -0.55088269960815        1.15688319145297
C            2.58366848406602        1.62308034825372        2.91395737922977
H            2.27208402968317        2.55248930292544        3.28769428346900
Cl          -0.47837135808790       -1.79229867630749       -1.88064607238778
Cl          -0.43272257196480       -2.83934292511928        1.00088856407519
O           -1.27296929616602       -0.25486608322704        0.93308277419590
O            0.08983961115034        0.55787013400695       -0.99720410414448
C           -1.93064371308174        1.84388781576916        0.13607802684417
C           -0.55649684216726        2.34046255932071        0.30817677267014
C            1.68653635449438        2.18900013520397       -0.46957169411484
C           -3.43977539479982        0.00283040188278        0.12572914225458
C           -4.46597255570213        0.81977117949026       -0.38627783695502
C           -2.89868527945968        2.68076750810723       -0.34286692997281
C           -4.20935352315470        2.20208576145809       -0.61370277636366
C           -0.28554230327813        3.47097649954037        1.02581007049712
C            1.01664407656117        4.03348524956213        1.00573483573695
C            1.99950441059863        3.40928653055792        0.18770953625200
H           -2.65217409059305        3.70927069240026       -0.55156860718896
C           -5.22361930712869        3.02475527048851       -1.10424341688448
H           -1.07191583368312        3.94848152969105        1.58731771826138
C            1.33256804880900        5.19477038731910        1.71671962055739
C            3.23776434015171        4.06176921500652        0.03349842916382
C            2.66655995006940        1.43808783648497       -1.24672349906888
N           -2.22716582375906        0.54849556767303        0.40261981280019
N            0.42535277928403        1.70711930503726       -0.37928487751141
C           -3.61772002309124       -1.42759672569401        0.39592152137625
C           -5.76040144985220        0.32323740726787       -0.65002363951439
C           -6.47857482062851        2.50874968649558       -1.36457177400001
C           -6.73997953492299        1.15947365776706       -1.13196438416897
H           -5.97068490857983       -0.71725685367374       -0.46100076731453
H           -5.01384991841098        4.06988501696227       -1.27642646417265
H           -7.25861182348405        3.15077002942843       -1.74368151932916
H           -7.72616433352549        0.76696567403146       -1.32942436537595
C            2.58215666785139        5.76899041298812        1.60116309759408
C            3.51993770084238        5.21264509371530        0.73595560196220
H            3.96501409461499        3.66555526658468       -0.65603876274068
H            0.57938301186139        5.64026969796762        2.34986480676250
H            2.82278076154477        6.66115796341286        2.15887012746837
H            4.47933308184315        5.69124786475906        0.60933765854137
C           -3.88808750509545       -2.30384368702227       -0.65308130246381
C           -3.49988578839690       -1.92308496418356        1.69176728694315
C           -3.92147564102169       -4.14184748489621        0.88742536847319
C           -3.65851191918913       -3.27380810511692        1.93308781210301
C           -4.03200113111463       -3.65509107468732       -0.40430008842864
H           -3.94510742342366       -1.92381603916870       -1.66222544804471
H           -4.21817859052724       -4.33103182859474       -1.22513199653759
H           -4.02739891398757       -5.19919157500488        1.07736631403182
H           -3.56078586267718       -3.65118734837209        2.93946104207810
H           -3.28156571701729       -1.24676489706736        2.50450526437708
C            2.35540282104734        0.91822595540725       -2.50562830654167
C            3.94796601705027        1.22121219690591       -0.73055977019699
C            4.56014021985473       -0.01692742460071       -2.69380437499668
C            4.88113545680871        0.49886816531566       -1.44777148048176
C            3.29551332154439        0.19755806920309       -3.21711435004275
H            1.37782434054183        1.08093033122666       -2.93050411986981
H            3.03526869965222       -0.20284131794092       -4.18540996630971
H            5.28970779664636       -0.58779308693036       -3.24823620674858
H            5.86298282929614        0.32853719370746       -1.02949704770174
H            4.18741333135741        1.59532686863586        0.25350013187182
