77
 energy: -129.323588400286 gnorm: 0.000736941944 xtb: 6.5.1 (b24c23e)
Si           0.24477454553159       -0.66236266284445        0.29361355405487
O            1.64258691254758       -1.47241206450403        0.01391935803432
C            1.91851267879804       -2.83438150801496       -0.15495412656475
C            3.29859629677887       -3.00169873018730       -0.73734883316223
H            1.17020962555250       -3.27356652481757       -0.82942830747685
C            4.38645902456800       -2.39378063045119       -0.12450964153695
C            3.50572266558575       -3.80189270531462       -1.85204003247159
C            5.66440309811422       -2.59992615794789       -0.61109990528915
H            4.22084868616414       -1.75257133565553        0.72775084278914
C            4.78446622963691       -3.99986138694957       -2.34343375948078
H            2.66148153311852       -4.27316475148924       -2.33486541372371
C            5.86713985033438       -3.40429046267971       -1.71971040277177
H            6.50810817819395       -2.14004905688739       -0.11766900825074
H            4.93614642571907       -4.62408156526031       -3.21210634310073
H            6.86634615285129       -3.56662826539886       -2.09726203493259
C            1.85716148493783       -3.57096916165688        1.20119969197670
C            0.51335751372017       -3.57718083510914        1.72949328385674
H            2.20922580691228       -4.59654176286350        1.06127429347365
H            2.51761330300483       -3.05707160181820        1.90410766722835
C           -0.61015846552235       -3.54064584527340        2.13932547424885
H           -1.59188602226587       -3.52433674968239        2.50572932064412
Cl           0.92810969222961        0.00434673950211        2.16348433393122
Cl          -0.93983221745335       -1.89754035339773       -0.96926182713903
O            0.50681008448321        0.62116870351409       -0.80581675397396
O           -1.31254193579266        0.08242909613651        0.93914364561164
C           -0.88084348696673        2.41117360474141       -0.27746915934946
C           -2.04296818505286        1.58211500998863       -0.64862435266324
C           -3.39362244734898       -0.28636138368849       -0.06917301562430
C            1.48102952936634        2.58867147555384       -0.01123187431599
C            1.34314619461988        3.92238951829004        0.43754425225876
C           -1.06718438348532        3.68699117059094        0.16694904955888
C            0.04289369955855        4.49199773987571        0.54558351948618
C           -2.91855469819875        1.97402222950993       -1.61761202640463
C           -4.09239893160944        1.21644417501937       -1.87337796696557
C           -4.34640313202518        0.08462765834671       -1.04867172850431
H           -2.06709416938186        4.08185886872583        0.24560685694030
C           -0.10987392602658        5.80106701285603        1.00180758431531
H           -2.71830653243141        2.86605037045822       -2.18874503892172
C           -5.00806840808349        1.57751773417908       -2.86437344562373
C           -5.56708652615383       -0.59972984995355       -1.21783833277782
C           -3.60275531257229       -1.40257400300102        0.85235437710701
N            0.36929189845098        1.90122218667683       -0.37825401243606
N           -2.27683086038854        0.45998575403473        0.07685206447879
C            2.77561195080741        1.92479725504675       -0.13883971078055
C            2.45291809877354        4.73669511350023        0.74408798528367
C            0.99537232273993        6.56283740784684        1.32957746233244
C            2.27281809731863        6.02836746480480        1.18408025310148
H            3.44772850186676        4.34168642327214        0.61699347381879
H           -1.10446329041178        6.21201111080146        1.09079531959315
H            0.86974948684388        7.57429245595831        1.68404938470204
H            3.13462386398716        6.63650039258144        1.41492981417155
C           -6.17466636952174        0.86045695306569       -3.03457891888925
C           -6.45517073564335       -0.21641165146167       -2.19647603847780
H           -5.80659820267287       -1.42337201847252       -0.56514067096634
H           -4.79160571281270        2.43065071917099       -3.48990943199278
H           -6.87724908150974        1.14344766311884       -3.80332065648302
H           -7.38373444962383       -0.75486985779251       -2.31309086519126
C            3.65055365292835        1.88709516634284        0.94798796378711
C            3.16284249660975        1.33931695591069       -1.34459361105236
C            5.29090368665841        0.76838889127707       -0.39839515627701
C            4.41313019982418        0.76726588928059       -1.46945737939031
C            4.89926241528577        1.31324768490514        0.81372884968057
H            3.32728703420311        2.27800021470900        1.90038826499307
H            5.56903355956156        1.28800311203069        1.66088603163543
H            6.27377159913088        0.33599900013463       -0.50719635808177
H            4.70616601864121        0.31925705676314       -2.40715697762419
H            2.48806651446918        1.35006917751861       -2.18657497350561
C           -3.53178715428543       -1.18899621671893        2.22913544290019
C           -3.90801175062753       -2.67793406880565        0.37530268942346
C           -4.12900621132315       -3.48036011000015        2.62726133435984
C           -4.16719012366634       -3.70709264587383        1.25951784703485
C           -3.80103754425243       -2.22161435303945        3.10755910397989
H           -3.27753087814223       -0.21109365923214        2.60861958963403
H           -3.74957855325886       -2.04431431964693        4.17187762487667
H           -4.33647227874470       -4.28635547360889        3.31638388557520
H           -4.39281799807270       -4.69325939557820        0.88156576677650
H           -3.89872663509464       -2.86009903096574       -0.68782516548161
