77
 energy: -129.316599970380 gnorm: 0.000586609098 xtb: 6.5.1 (b24c23e)
Si           0.00586043494975       -1.03591828917674        0.19967958592637
O            1.41921414301397       -1.71584346925491       -0.27531506846564
C            2.74728052191154       -1.51856761467598        0.11801346721669
C            3.56349579201129       -2.72443167585242       -0.27923596265184
H            3.12244440325743       -0.62961146252772       -0.40316723374529
C            3.01724462195249       -3.99677824847833       -0.18473174264712
C            4.87745635470309       -2.57495411515131       -0.70081340765262
C            3.77478876372965       -5.10559789752331       -0.51700262915122
H            1.99341458056751       -4.10360383962588        0.13954062536472
C            5.63611401536399       -3.68533656420094       -1.02601071667217
H            5.30216157529243       -1.58362705353423       -0.77597915091687
C            5.08573803556575       -4.95277484223274       -0.93564062373237
H            3.34132323882521       -6.09242228606126       -0.44647066093221
H            6.65833564859997       -3.56159168168650       -1.35386095421872
H            5.67785250726527       -5.81889177484574       -1.19306020265063
C            2.91665621171052       -1.30496960000511        1.63838843583853
C            2.23691511240514       -0.12302158494075        2.11448006279447
H            3.98630578041825       -1.22335509366303        1.84974829250201
H            2.51185576296406       -2.17602470609214        2.15952400516892
C            1.65904470580142        0.85118382842613        2.50513930462169
H            1.15550186725113        1.69379507745823        2.87717972354916
Cl          -1.08488031886749       -1.82344692433954       -1.34485767662240
Cl          -0.16314850969258       -2.21770642777443        1.94559435868200
O           -1.36654968652034       -0.14433735169822        1.00704814886335
O            0.47924010586389        0.50494416066144       -0.56383543990752
C           -2.10869477025991        1.58295488235678       -0.32932082743113
C           -0.89178357537217        2.32031110203214        0.04688257995478
C            1.47998380816650        2.52733189510443       -0.00322969058731
C           -3.46772347564323       -0.33013677331364        0.03892626475135
C           -4.46416412568532        0.19736576614727       -0.81331792089217
C           -3.02877460273736        2.12915515153820       -1.17875564998076
C           -4.23761283820658        1.44388323411499       -1.46149993542535
C           -1.02086671222021        3.57594334420985        0.56968142574851
C            0.12101488720618        4.36388692607963        0.87775040805333
C            1.39598318959090        3.83564396224911        0.52674324665402
H           -2.82971999098669        3.08395648878356       -1.63794834571323
C           -5.20756512071121        1.96478737978198       -2.32396644553935
H           -2.00693384307059        3.97575820666379        0.74244899501105
C            0.01752986066832        5.63321304724862        1.44580797460564
C            2.52025325360623        4.67245769234784        0.68780734343186
C            2.73266133455292        1.97451526282136       -0.51519466460197
N           -2.34095351285800        0.38282162345160        0.24768421509291
N            0.33879721696424        1.78807536250273       -0.16169218602824
C           -3.60675714901341       -1.60583703450129        0.74282405884800
C           -5.69878900697930       -0.45139298858682       -1.01984800923472
C           -6.39053787385552        1.28926916582165       -2.53402811748232
C           -6.63611867456410        0.08822109324779       -1.86830334022443
H           -5.90215734729156       -1.37183213569052       -0.49699619198724
H           -5.01649778764616        2.90581514605969       -2.81787468219664
H           -7.13413925356326        1.69497011760273       -3.20282375947603
H           -7.57608484543970       -0.42097372193868       -2.01901932467551
C            1.14610324151233        6.40473924109352        1.64696132581458
C            2.38936450362097        5.92470306380192        1.24472471664056
H            3.48786867586158        4.33029711488974        0.35971602090653
H           -0.95877861055187        6.00662619092549        1.71707648983592
H            1.06164962486948        7.38398184296846        2.09213109976253
H            3.26499364331503        6.54477355108746        1.36626560542730
C           -3.87273609354171       -2.77609421574680        0.03188554724711
C           -3.45003826298492       -1.66787573825530        2.12654131055409
C           -3.81937636518421       -4.03623436129159        2.07386004590098
C           -3.55981860449076       -2.87721868751393        2.78497198858063
C           -3.97376423822112       -3.98168480607253        0.69789952216891
H           -3.94301265009536       -2.73565741126971       -1.04367048605178
H           -4.16066983193951       -4.88566154670506        0.13767875489923
H           -3.88978589657396       -4.98214907387661        2.58945808508671
H           -3.42872531839836       -2.91526400142505        3.85559043671641
H           -3.24187565432882       -0.76747986505115        2.68433899940190
C            2.79545600382155        1.51330162679126       -1.83289061773308
C            3.89097916743717        1.94171683798215        0.26499952335141
C            5.13731527561889        1.04764899714164       -1.58266147146431
C            5.08009193734039        1.48153565778929       -0.26721059418646
C            3.98892855682117        1.05745953279893       -2.35879511113539
H            1.90748527526022        1.52327275295600       -2.44619953730245
H            4.02385101283869        0.70828552246509       -3.37978506373143
H            6.07030964103674        0.69848764807949       -1.99987220472289
H            5.96661573628651        1.45727889984873        0.34980640148492
H            3.84316951767512        2.24377646725104        1.29987125131065
