77
 energy: -129.328453924419 gnorm: 0.000555164587 xtb: 6.5.1 (b24c23e)
Si          -0.46447885333364       -0.62786113667537       -0.67689156458963
O           -0.30654709177871       -1.47966828006480        0.69340406986529
C           -0.52120260842308       -2.84684209365214        0.94106250514958
C           -1.91726405763376       -3.26146492752589        0.55579352644523
H            0.20939147246173       -3.42943098802228        0.36427548741564
C           -2.97422143829144       -2.38582242276393        0.76340566010101
C           -2.16138416728149       -4.50373559171840       -0.01092083489886
C           -4.25822191877458       -2.74032021796532        0.39339769409702
H           -2.78172511053810       -1.41309795501995        1.19127189092289
C           -3.44849082881040       -4.86224188147687       -0.36974109356543
H           -1.33874819252124       -5.18070093760705       -0.18858891817266
C           -4.49802229818741       -3.98109061022158       -0.17143486690598
H           -5.06783272380776       -2.04117175302247        0.54194048862955
H           -3.63061956162574       -5.82783612656534       -0.81815903583121
H           -5.49998143654597       -4.25832550029563       -0.46467759018622
C           -0.29895284049336       -3.06696775438855        2.45047273019984
C            0.99062411554865       -2.56277785202424        2.87028399845527
H           -0.37805713226542       -4.13436590980877        2.67101880836619
H           -1.08081344859498       -2.53173414381800        2.99567032597897
C            2.05271288339765       -2.11222270086936        3.19039649846189
H            2.98405725028271       -1.72558364360579        3.48137359848942
Cl          -2.05672112960016        0.09622970250353       -1.78224447017201
Cl          -0.21315225655128       -2.30137470136592       -2.02815381596373
O           -0.66646241208340        0.74671815372734        0.54069697307422
O            0.97102557411927        0.10805971143563       -1.27291732101697
C            0.62149745361278        2.53875919074470       -0.10611619111384
C            1.77976649285709        1.69225076039264        0.23037053972099
C            2.91994055428248       -0.37860642268079       -0.08197864420623
C           -1.74447166488576        2.75004570303640        0.02569979336977
C           -1.65819467850733        4.09106256387275       -0.42325375559012
C            0.75920630191141        3.81744391177143       -0.56338201380453
C           -0.38624044375148        4.63214511479576       -0.76357476017526
C            2.68904796557726        2.09598888001439        1.16394088982848
C            3.76604673755421        1.24600033333009        1.54125891482916
C            3.87561773865411       -0.01624068013607        0.89014249214088
H            1.74237186572253        4.20902357319629       -0.76790158265275
C           -0.29147493249736        5.94309675399535       -1.23828633404083
H            2.57055730788354        3.05531222577284        1.64106296623589
C            4.69611072017957        1.60904626521252        2.51512727557046
C            4.96625156723024       -0.84743483482954        1.22272873601367
C            2.96509769372984       -1.63651861044805       -0.82799705581527
N           -0.60837681643513        2.02665578121835        0.14779210496085
N            1.91920536364589        0.49143307052209       -0.37855200597747
C           -3.00304428072495        2.11363930916226        0.41576650547542
C           -2.78417501826026        4.93384644341766       -0.50914912419445
C           -1.41961258711566        6.72847112905530       -1.35655513150004
C           -2.66017430213502        6.22350332064971       -0.97364158561458
H           -3.74643785153100        4.56198057392118       -0.19689019999385
H            0.67950035049099        6.33285713982626       -1.50515200770507
H           -1.33955138837304        7.73841820069998       -1.72842101228205
H           -3.53494389385579        6.85296326627976       -1.03807628723721
C            5.73611608981996        0.75965441838252        2.84403297653794
C            5.87044596333906       -0.46062460322476        2.18573911097129
H            5.08730199281623       -1.78711881809569        0.70828156368858
H            4.59339206378096        2.56468239720130        3.00741201567971
H            6.44980955693892        1.04610376363957        3.60119638403370
H            6.69699767609156       -1.11069940080531        2.43158081221631
C           -4.10009923900971        2.11092281930636       -0.44691103985540
C           -3.11454856619953        1.48338088373322        1.65526078056903
C           -5.38311036286163        0.87613714903520        1.16203544770956
C           -4.29834621935511        0.87246616703412        2.02298409436365
C           -5.27775137544699        1.49438660228717       -0.07369591754332
H           -4.00454865934083        2.54991668980306       -1.42740574785850
H           -6.11491339170281        1.48601684419249       -0.75551623197711
H           -6.30581086341989        0.39462950225078        1.45133600220418
H           -4.37389564451750        0.38838469802530        2.98597815302971
H           -2.27292911392497        1.47800190731892        2.33131833993389
C            3.00088916666429       -1.62424427891190       -2.22220050952447
C            2.96051875946521       -2.85962640213223       -0.15802698787465
C            3.02825950036806       -4.02182151196488       -2.25711213478550
C            2.98675778400452       -4.04179586433300       -0.87303212340112
C            3.03694655172733       -2.81049917912574       -2.92763547302452
H            2.99926269196344       -0.68159855745261       -2.74862406507045
H            3.05870364336675       -2.78939518733668       -4.00650139816868
H            3.04092141642531       -4.94771592450836       -2.81199898741905
H            2.96420414676800       -4.98396292888093       -0.34447640907829
H            2.88887038830943       -2.87327058742803        0.91955507406616
