77
 energy: -129.326441445687 gnorm: 0.000764725837 xtb: 6.5.1 (b24c23e)
Si          -0.12996316911844       -1.30538658008525       -0.49514554576404
O            1.39216990266513       -1.40897237851153        0.06033149120933
C            2.03203099797335       -1.75066222126474        1.27899789162976
C            1.44469467000112       -0.91381803011601        2.39015904775892
H            3.07224340588753       -1.43435479113376        1.11607742411543
C            2.03276668752795        0.31218251563296        2.67957294916035
C            0.28358089562521       -1.27802470693495        3.06007553631952
C            1.46970036423422        1.16636486772809        3.61031544757288
H            2.94021024178195        0.60446646183513        2.16863440119315
C           -0.27894627428287       -0.42203741667465        3.99096090527701
H           -0.19703529402082       -2.21684304811546        2.83955464792633
C            0.30649955739506        0.80206585303309        4.26576869753393
H            1.94064355277769        2.11627106150748        3.81926927406908
H           -1.18403760978209       -0.71386566085385        4.50349653557834
H           -0.13997322243148        1.46886368593566        4.98938582403848
C            2.04537044811552       -3.26059135833575        1.54756040381267
C            2.82422755580275       -3.92952790850279        0.52779497971375
H            2.49071314615657       -3.43281879855428        2.53134413850658
H            1.03018385857260       -3.65706587589576        1.53219360796903
C            3.47822646586595       -4.42678583585531       -0.34195545583799
H            4.03170259445953       -4.89525542028838       -1.09909656238136
Cl          -0.72121550030482       -1.95870600805339       -2.35452959059111
Cl          -1.02319182832032       -3.00177878524662        0.47706572666697
O           -1.08680558405818       -0.29210816475340        0.53828258088026
O            0.34397588163618        0.19334941135618       -1.45066634146843
C           -1.16756684944598        1.93634478477443       -0.17705291185444
C            0.29636653871734        2.01821316350745       -0.05219187763605
C            2.37417941209641        1.21061121538018       -0.88451291934828
C           -3.13391612495817        0.59322851339464       -0.12074837656423
C           -3.90960440309974        1.67322698160076       -0.58591126390076
C           -1.88048008855199        3.01847951234566       -0.60782341031731
C           -3.28200698837544        2.92804133811566       -0.83058464693703
C            0.91003104211152        2.97790182077428        0.70030362598841
C            2.32297591970301        3.10689934632228        0.67513865310341
C            3.05703505700311        2.23275990915363       -0.17522037213444
H           -1.36368495257895        3.94124281229525       -0.81684373341594
C           -4.03979020164765        4.00515248779063       -1.29006849746961
H            0.31567941649237        3.64178210745656        1.30627794388806
C            2.99452275132328        4.07415897933176        1.42725398530901
C            4.44455631514109        2.44282386158310       -0.30224962516742
C            3.05512293566406        0.19808429353472       -1.68696260302515
N           -1.80231976403043        0.76861815230633        0.08869419993204
N            1.02421790515738        1.15633863074036       -0.80370063803996
C           -3.69028688889410       -0.73146954830000        0.16782393583990
C           -5.30169087367235        1.56676580522989       -0.79014724364567
C           -5.39835471910775        3.86613785866719       -1.50115282851937
C           -6.02245604827927        2.64714223050048       -1.24332941585359
H           -5.79220320872798        0.62965078714181       -0.58079655785313
H           -3.54935053808238        4.94848015240844       -1.47878222510997
H           -5.97767477922191        4.70296371629450       -1.85972458349951
H           -7.08649501365349        2.55043569131753       -1.39848195332438
C            4.36400769088070        4.21373383191868        1.32811830934785
C            5.07947716949078        3.41097582737906        0.44358331095414
H            5.00717049377723        1.84862755770748       -1.00406998750261
H            2.42245254354483        4.71608011891668        2.08052091818206
H            4.87724237968507        4.95815203973811        1.91725166010640
H            6.14452766803233        3.55167811445751        0.33657474356944
C           -4.28925334396328       -1.47539231030917       -0.84709624300298
C           -3.60149367329144       -1.26771000913729        1.45079655617249
C           -4.70556450392432       -3.25967826756194        0.70102155767550
C           -4.11328898891308       -2.52328200796225        1.71290014680756
C           -4.78842788689145       -2.73527304959035       -0.57814294017519
H           -4.32380690739278       -1.07548352987073       -1.84985426259697
H           -5.23102302340869       -3.31437675400074       -1.37456581674481
H           -5.08899446878907       -4.24782858584533        0.90572456667197
H           -4.03566621361225       -2.93535797177831        2.70737094474925
H           -3.12577240395710       -0.69725681332786        2.23456406051767
C            2.60024618871040       -0.13317195612713       -2.96470794334105
C            4.15683994884838       -0.48823127514253       -1.16979894621417
C            4.29794832471975       -1.81796136463095       -3.15990324236137
C            4.76603779984468       -1.48960363300715       -1.89821903897854
C            3.21842908740410       -1.13196546081828       -3.69037779152495
H            1.76181479907644        0.39482798222581       -3.39059900186086
H            2.84869628050454       -1.38059981709022       -4.67369753235861
H            4.77077193065873       -2.60637050382164       -3.72632932500127
H            5.60309441255176       -2.02302186663761       -1.47279628472411
H            4.51377010117509       -0.25735576720360       -0.17682709370140
