77
 energy: -129.328335220569 gnorm: 0.000545836710 xtb: 6.5.1 (b24c23e)
Si          -0.19985139240372       -0.68071538325434       -1.20041312771905
O           -0.42181458105302       -1.90427023483038       -0.16881272803180
C           -1.09290475096881       -2.02682941496422        1.06063206715680
C           -2.46399371478922       -2.63238934822267        0.87221204220324
H           -1.21688556681806       -1.03424314272380        1.50603870483831
C           -2.88768974253770       -3.09902571445471       -0.36252474679185
C           -3.33207317358038       -2.69776767851134        1.95635446557025
C           -4.16543035278531       -3.61001969212370       -0.51410927198282
H           -2.21550784736311       -3.05949665849197       -1.20500728815779
C           -4.60467367538290       -3.21530948352243        1.80547089507573
H           -3.00834786326684       -2.33574548708901        2.92259513491246
C           -5.02708253456528       -3.66791027075338        0.56646805110739
H           -4.48564883942617       -3.96391289950466       -1.48267325206880
H           -5.27103988884238       -3.26112950729648        2.65500858920164
H           -6.02430109198444       -4.06533878294277        0.44632361113241
C           -0.20266731983550       -2.88399721118974        1.98348261747384
C            0.85951666392821       -2.08093778513024        2.54860325866012
H           -0.80414765586945       -3.31199688144625        2.78850797991039
H            0.22049099685872       -3.69466664517903        1.38509478996557
C            1.71039483132056       -1.36833096076717        2.99780878895269
H            2.47184354992992       -0.76972662287265        3.40168126407890
Cl          -1.58767132861906        0.31321016849871       -2.36644031671751
Cl           0.31816254403220       -2.05247089183282       -2.72497743407461
O           -0.54289620603753        0.52496498570103        0.23014610364037
O            1.32317777371239        0.07964918419579       -1.39787655832933
C            0.64921619923566        2.45700809863202       -0.16202409549800
C            1.84367567936070        1.68789506394388        0.22470481778218
C            3.12680535540360       -0.31307377068643        0.02203438080859
C           -1.72836344543375        2.48046382574103       -0.16700688661993
C           -1.72884619882618        3.84045959246712       -0.55343625077274
C            0.70627319612467        3.77010649936133       -0.53346903437455
C           -0.48699898099486        4.49821345750853       -0.77948636207309
C            2.65517002270494        2.14735150738008        1.22221620658449
C            3.76445001909502        1.37803108164564        1.67206654772818
C            3.98884793522656        0.11503575137290        1.05187494693155
H            1.66430355840791        4.25123331176577       -0.64532125672896
C           -0.47527370254730        5.83399192220050       -1.19113097540699
H            2.43346524313324        3.09178311048650        1.69245521913600
C            4.60779172313238        1.81042103928375        2.69485093236369
C            5.09655401648502       -0.65028362607340        1.47442938461802
C            3.28271742476904       -1.59307423117746       -0.67212167307481
N           -0.54991549885836        1.83775421920870       -0.02388404228375
N            2.10845553396380        0.50041541150028       -0.37132586467731
C           -2.94452816750150        1.72815704718709        0.15475453757421
C           -2.91761331817430        4.58265064054318       -0.69534472415492
C           -1.65767380939061        6.52421540739758       -1.36029431450024
C           -2.87451431488611        5.89777055923982       -1.09765179431730
H           -3.86223802364663        4.10941983866681       -0.48124939486242
H            0.47330777221310        6.31747145904939       -1.37089964054066
H           -1.64106769830564        7.55403005736167       -1.68273242601607
H           -3.79428021987008        6.45211637039725       -1.20855897576656
C            5.67141285130799        1.02726561127384        3.10544279306386
C            5.91310737960843       -0.19621936198715        2.48521945769972
H            5.29926305890968       -1.59189236825044        0.99036709783273
H            4.41938364999601        2.76623679500093        3.16108807385989
H            6.31814005517437        1.36755878757835        3.89946267069414
H            6.75465045201915       -0.79547458194473        2.79915024999687
C           -3.97836086156255        1.59128034297331       -0.76998607600843
C           -3.06813594915374        1.12707327565865        1.40667293284354
C           -5.21652906785154        0.25572625227715        0.79445825220009
C           -4.20225353876664        0.40511180293570        1.72462780424739
C           -5.10017552080247        0.85070091124079       -0.45099855565952
H           -3.87210981696825        2.02681137422728       -1.75079137490848
H           -5.88558927236629        0.73194822161447       -1.18209096906776
H           -6.09205733584427       -0.32623032334505        1.03928011413038
H           -4.29564806448111       -0.04258528792236        2.70225555303314
H           -2.27898928642873        1.24351827588221        2.13600495461183
C            3.46417346932470       -1.63584478247127       -2.05333904976968
C            3.23889633872875       -2.78727422370017        0.04738894760844
C            3.54515487814918       -4.03135724127402       -1.98150758113497
C            3.36387090390955       -3.99638137835343       -0.60857407727014
C            3.59817515752303       -2.84914749966269       -2.69954606746003
H            3.49743903210849       -0.71670259704740       -2.61818088434356
H            3.72921832006766       -2.87067874676374       -3.77016364374518
H            3.63463346944742       -4.97859826766599       -2.49140792922307
H            3.31081022311382       -4.91672676304719       -0.04508610930446
H            3.06828834036645       -2.75608751292309        1.11342751420294
