57
 energy: -99.552238456114 gnorm: 0.000539285114 xtb: 6.5.1 (b24c23e)
Si           1.12489489175253       -0.17505524398146        0.51021359769754
O            2.69918584341096        0.08274443996405        0.18869880787939
C            3.82343455977143       -0.74709181886516        0.26182424409981
C            4.94690187281612       -0.14891281513617       -0.54472198591871
H            3.56938058700037       -1.74372402705594       -0.12316278044919
C            5.08184253130191        1.22956768560433       -0.63659614942247
C            5.88002974433841       -0.96889722778728       -1.16461431880846
C            6.13329126686018        1.78091606075804       -1.34662986937211
H            4.34867622394462        1.85869736713539       -0.15547252981697
C            6.93552830389242       -0.41586002546232       -1.86773817818108
H            5.77570860644761       -2.04267751364471       -1.09748202115060
C            7.06373380436272        0.95982020910569       -1.96070862076277
H            6.22932076517885        2.85465611592588       -1.41787874775212
H            7.65785784641370       -1.06019821958903       -2.34749602139417
H            7.88644172584568        1.39028217765317       -2.51284481025913
C            4.27227590786195       -0.87990005562980        1.73484252111742
C            3.24150913367686       -1.49751580940774        2.53662868616045
H            4.47513515603042        0.12234843787578        2.12253468353682
H            5.18882219819714       -1.47339109527558        1.77516235775494
C            2.33963273908543       -1.98286994393024        3.15629604090676
H            1.58041926499853       -2.41495968608727        3.73641179045454
Cl           1.12270498120312        1.53609812491925        1.78784175017421
Cl           1.14416684733496       -2.19723620259769       -0.26536643936265
O            0.27950483128660        0.45690498875438       -0.83636361592737
O           -0.34267890235606       -0.56838844170156        1.43127967772193
C           -1.95470389546287        0.85988062936450       -0.22087059337214
C           -2.16109716844554       -0.55069759763736       -0.02698526720422
C           -1.49285464665316       -2.54302468461540        1.09475418926990
C           -0.44716346594431        2.63372571355807       -0.73973856982044
C           -1.40920319798319        3.57980141521423       -0.61323671564745
C           -2.99514424634010        1.82143641735291       -0.01414197868952
C           -2.72850596600990        3.19797764647006       -0.23902345875156
C           -3.21279864369959       -1.27576424262144       -0.67056895612121
C           -3.40705730051841       -2.64641708687016       -0.35594157049624
C           -2.51526764351633       -3.26127354640494        0.56588343194408
H           -2.63273163038717       -4.30264349604457        0.81303631321205
H           -0.75603592681851       -2.95107353439729        1.76582482759780
N           -0.72909730182926        1.32845243283144       -0.58508743868497
N           -1.34106522128853       -1.23767710117392        0.81437359628318
H            0.58018090185078        2.84357544417929       -0.98623762348291
H           -1.17183662792254        4.61997889508056       -0.75697932845367
C           -4.01242534567787       -0.70012810240435       -1.67381237676940
C           -4.43868982718275       -3.35889585970800       -0.97990084946681
C           -5.23946250923202       -2.75485131247098       -1.92148263519868
H           -6.03260552609580       -3.31074253309694       -2.39757869401420
C           -5.00897205432022       -1.42723195674433       -2.28083324860205
C           -4.25512891417557        1.46449869321796        0.49835580478504
C           -3.74343693063575        4.14149570936228       -0.04349947705153
C           -4.98565471245433        3.75527693395424        0.40616811424738
H           -5.76274901905742        4.48908569080611        0.55519089506841
C           -5.22951326070641        2.41439356021451        0.69777384707120
H           -3.52940773399032        5.18096644588706       -0.24112327968212
H           -6.18983217173249        2.11740129038598        1.09090905265031
H           -4.45886030024663        0.43412722058858        0.74192615427324
H           -3.83839917239174        0.32239792963068       -1.96955191328853
H           -5.61379668277454       -0.96710510038994       -3.04725928124191
H           -4.58709958901357       -4.39489039506320       -0.71501103928922
