57
 energy: -99.558590767310 gnorm: 0.000982082907 xtb: 6.5.1 (b24c23e)
Si           1.43850292043210        0.30219400024220        1.22560472840893
O            2.26396317030354       -0.86499077864286        0.47053234058566
C            2.74456890546113       -0.94194607619559       -0.85239669778764
C            4.11464939944319       -0.31997047158756       -0.95675338661962
H            2.05221014118432       -0.41458584236431       -1.51637857153231
C            4.95582309143606       -0.27128762781651        0.14542720965347
C            4.54634495375421        0.20377443283754       -2.16853531771122
C            6.21038106405864        0.30277952181804        0.03870273045489
H            4.61457394127318       -0.66847140796531        1.08890906867996
C            5.80329580357189        0.77055680181062       -2.27537193454818
H            3.89032206993931        0.17165036136207       -3.02759736642325
C            6.63726179765743        0.82279125405327       -1.17079627879568
H            6.85425155923579        0.34480314813980        0.90436423455063
H            6.13013206482179        1.17898953975857       -3.22062136549881
H            7.61576396713065        1.27264122046423       -1.25323678009556
C            2.78755792219663       -2.43128382599307       -1.24509921802241
C            1.45294897648851       -2.93069036409660       -1.49267892899068
H            3.24947194041937       -2.98836803371158       -0.42705096834387
H            3.39581008851024       -2.54914413337436       -2.14547976341660
C            0.32871104040738       -3.28273933146481       -1.70539593588714
H           -0.64430968881264       -3.62289313517376       -1.89896868729212
Cl           2.00304479582700        2.28076586889164        1.38112987339746
Cl           2.21910131028843       -0.25272425526110        3.10914086523336
O            0.57074079047855        0.71950121928465       -0.42261703678379
O           -0.13755241829816       -0.09702198209323        1.79688565971829
C           -1.71579304468092        1.02610461449132       -0.13505491897083
C           -1.81013186245670       -0.37391287413616        0.15767981359973
C           -0.90918433706002       -2.21756462644774        1.37779237925527
C           -0.28540924076959        2.83216721528101       -0.72613876429360
C           -1.32333184090377        3.70395298208950       -0.81808808396659
C           -2.83561988017492        1.91643807620858       -0.13906817439408
C           -2.64119094034698        3.27236329879220       -0.50976222099092
C           -2.71505271822096       -1.26603488505134       -0.50248318870977
C           -2.72705717898208       -2.63886052778479       -0.13922047971565
C           -1.78598738206017       -3.09360042728518        0.83009715317412
H           -1.75177195165501       -4.13588734869206        1.09777133112132
H           -0.15534451352875       -2.48729288959998        2.09959957147889
N           -0.48363545582691        1.54196537579419       -0.40236857498301
N           -0.94989916916139       -0.90926818255693        1.07017816840394
H            0.74130284098650        3.10111887794347       -0.91216737888852
H           -1.14449192210893        4.72919161573940       -1.09465489936164
C           -3.53548521299155       -0.85304470319482       -1.56591131146849
C           -3.61375778003868       -3.51520327589598       -0.77412652170834
C           -4.44655389354748       -3.07016339018136       -1.77754261872664
H           -5.12730902256530       -3.75347517647867       -2.26176123446667
C           -4.38696805318848       -1.73991757876093       -2.18539458651393
C           -4.11056493428611        1.51802814378444        0.29757462903404
C           -3.73543706950580        4.14794709177651       -0.52498363343753
C           -4.98344864838170        3.71681754062876       -0.14174401076308
H           -5.82109317939606        4.39723638987927       -0.15463154029708
C           -5.16273729090414        2.40306899111661        0.29132000996248
H           -3.57629359771768        5.17063851048823       -0.83190565927180
H           -6.13457103374680        2.07913638667981        0.63092394269537
H           -4.26119565176294        0.50849867711883        0.64604439123761
H           -3.49469718967576        0.17007060044948       -1.90386659502111
H           -5.00965199527201       -1.39983708652783       -2.99867967080713
H           -3.62533145727064       -4.55152851858181       -0.47040579614654
