57
 energy: -99.476461472794 gnorm: 0.000403722941 xtb: 6.5.1 (b24c23e)
Si          -0.31863477747860       -2.38725704654802        0.21423663668109
O           -1.81619767864947       -0.42061095785258       -0.31740657218205
C           -2.99006771639984       -0.62669246774593       -0.54433670343507
C           -3.98806236982076        0.42691496427149       -0.68863075823882
H           -3.36903540739165       -1.65360287611553       -0.64737916280032
C           -3.60757328610004        1.77102348473283       -0.64374535528552
C           -5.33438156160190        0.09663632969236       -0.85467485228656
C           -4.55872067418890        2.76422961415711       -0.75966750879987
H           -2.56160531157263        2.01023447510416       -0.52194562517830
C           -6.28157103815354        1.09601357585627       -0.96582784331576
H           -5.62403724059561       -0.94315001594229       -0.89062514452059
C           -5.89554279572389        2.42786970678379       -0.91838315688216
H           -4.26246127604095        3.80220448060314       -0.72847934948695
H           -7.32344661771968        0.84181541363500       -1.09088297678999
H           -6.63918751453539        3.20590399447467       -1.00746621647545
C           -3.27491623866311       -1.39127009236414        2.77586304486280
C           -2.52234116366641       -2.19645221009682        2.08633118597221
H           -4.17648955503765       -0.96309135680454        2.36463371453215
H           -3.05714783548329       -1.15178691754659        3.80542493628153
C           -1.74289950951074       -2.94260788087091        1.38059833671864
H           -1.91320254093664       -4.01018985083433        1.36980084097923
Cl           1.13584134218849       -3.80116379831805        0.70304301344394
Cl          -1.33488017415123       -3.22875212470666       -1.47249786905468
O            0.59889566879759       -1.52091855703556       -1.02256458188004
O            0.32030931583690       -1.19083321843005        1.41471921234494
C            2.18082514121624       -0.00612558928421       -0.17121907713638
C            1.11251595512490        0.75890666924697        0.40260667533599
C           -0.77107418857407        0.77626025007871        1.84552275605625
C            2.82038729706990       -1.98223602091741       -1.33446856643987
C            4.13742037154945       -1.65973171114935       -1.29227452522042
C            3.55998284632338        0.36187232626732       -0.05110837094671
C            4.55213287428363       -0.46569695621868       -0.63925757807863
C            0.93711533076405        2.16070501573088        0.16787478667726
C           -0.08453331888695        2.85979073681208        0.86025438996259
C           -0.92622590812689        2.12115245760691        1.73736620636267
H           -1.71149047469987        2.62237663412280        2.27853655869786
H           -1.40841855123862        0.14321077007102        2.44370528680887
N            1.88550095938524       -1.16854311723296       -0.81227170329966
N            0.21294277434648        0.12644603164501        1.20318476783552
H            2.43528989270379       -2.87892598235351       -1.79197178342011
H            4.87162713147462       -2.31763775934330       -1.72517475253003
C            1.68550235470227        2.85501908044721       -0.79704787500466
C           -0.26330630310333        4.22963440299643        0.63128513636153
C            0.51799305405379        4.89571188613526       -0.28591503819391
H            0.37482880299581        5.95204676052490       -0.45592010804122
C            1.48006784447413        4.19864341046499       -1.01380662744743
C            3.98065442956735        1.46514792205469        0.71129137301938
C            5.90281916333786       -0.11444246600512       -0.52657386370282
C            6.28198558671199        1.00171084756987        0.18361039747362
H            7.32540033576289        1.26474969084955        0.26703350766682
C            5.31576167542036        1.77843225490637        0.82004855422051
H            6.64274500454429       -0.74314050131647       -0.99867484232125
H            5.61623957727770        2.63082268946374        1.41028790067579
H            3.24885915798266        2.07093902509386        1.22142579007804
H            2.42633428219864        2.32635445782786       -1.37588680886439
H            2.06626585894209        4.71439834249655       -1.75905182638296
H           -1.03150100098227        4.75180377330939        1.18240101459421
