57
 energy: -99.474792879081 gnorm: 0.000546535799 xtb: 6.5.1 (b24c23e)
Si           1.09092334225033       -0.49175880652270        0.75551661625273
O            3.19990450608569        0.12228489385068       -0.40968704762685
C            4.23814270120688        0.02500688549296        0.20651602874731
C            5.54716969590404        0.41211234254933       -0.31411132169914
H            4.24724430075488       -0.37762551854785        1.23122218706600
C            5.66599527450860        0.94943343373765       -1.59773416370619
C            6.68706700390174        0.24528325608805        0.47324628900974
C            6.90559161787630        1.31470267282112       -2.08303232643354
H            4.77204308074771        1.06886439124500       -2.19131082055502
C            7.92482864145363        0.61147626098430       -0.01905166549497
H            6.58961554733829       -0.17056259191373        1.46516754174652
C            8.03447253617254        1.14587105130062       -1.29450992066125
H            6.99804331692768        1.73121387279702       -3.07502987923068
H            8.80810601954823        0.48276145466340        0.58851188798459
H            9.00389000986873        1.43184009488341       -1.67530009020515
C           -0.20824127872015       -2.96989524165072       -2.03866514822947
C            0.63428825536359       -2.55415820525245       -1.14519554700791
H           -0.11541751869710       -2.68011893209288       -3.07250713602536
H           -1.02422444516994       -3.63287471233578       -1.79692688238144
C            1.43628617803312       -2.09280374763403       -0.24003204730428
H            2.33890575102407       -2.63789768847068       -0.00557427540688
Cl           1.37718319193731        1.50023828928455        1.41635932664816
Cl           2.22731608547452       -1.25328035125462        2.44678147910758
O            0.22560945327220        0.07694207569461       -0.72275390398734
O           -0.43430764716169       -0.71448009051952        1.57448323265091
C           -1.97687192071605        0.63192871028929       -0.23963814197366
C           -2.21432190160623       -0.75648436887857        0.04801003874104
C           -1.51293486672304       -2.70606438074011        1.22679982180997
C           -0.40642995242839        2.28009688537711       -0.92708602862663
C           -1.34014562954016        3.26630642779094       -0.91336256342673
C           -2.98689671115954        1.63915411637691       -0.14327508806937
C           -2.66968036893721        2.97502008256933       -0.50435582907249
C           -3.25048537680109       -1.51916849047579       -0.57710825106940
C           -3.41903389073247       -2.88522822126580       -0.22714813613332
C           -2.51258734546817       -3.46162934441890        0.70862732520440
H           -2.60450253637450       -4.50085294838080        0.97566988041119
H           -0.77607406794114       -3.07433051172609        1.92202432464987
N           -0.72660999726194        1.01311462150220       -0.61531223203103
N           -1.39397890043382       -1.40233030464916        0.92398724514077
H            0.62612097035985        2.42906520501450       -1.19597728346824
H           -1.07008969271118        4.27364977136893       -1.18175822138670
C           -4.05562705960907       -0.99221774405133       -1.60142980504326
C           -4.42807305226941       -3.63764940846738       -0.83723295550608
C           -5.23575656321585       -3.07936455626156       -1.80354378690416
H           -6.01114875007897       -3.66781574284036       -2.26970268015705
C           -5.03112705976887       -1.75919027093370       -2.19695569898760
C           -4.26430664497587        1.37267056386279        0.37996367296884
C           -3.65582641649510        3.96648111328764       -0.41596732274843
C           -4.91292816901928        3.66644776984090        0.05425465395479
H           -5.66655771832293        4.43630697193854        0.12058204766149
C           -5.20773077223781        2.36855367436245        0.47120144465996
H           -3.40609055027183        4.97368667333510       -0.71417225560584
H           -6.18322082405148        2.14453538720734        0.87538768786802
H           -4.50234840301288        0.37574072882945        0.71604108923774
H           -3.90344196378826        0.02448713562415       -1.92684696637854
H           -5.63854343760578       -1.33322011797098       -2.98104077724285
H           -4.55536804670475       -4.66912651670043       -0.54400962175724
