57
 energy: -99.561687787381 gnorm: 0.000625529508 xtb: 6.5.1 (b24c23e)
Si          -1.78832400504398       -1.39013455821382        0.79742090129449
O           -2.86567456623951       -0.35649220668135        0.17004120786001
C           -2.89955044423279        0.28981171076181       -1.08797690368743
C           -2.13101366087518        1.58413918093641       -1.01732550180561
H           -2.44955241214817       -0.36515977669064       -1.83905730610143
C           -2.43296742699964        2.51515386063831       -0.03136753831710
C           -1.10779021982513        1.85744675742921       -1.91456465529506
C           -1.74122935039375        3.71103328989589        0.03740548733688
H           -3.20850658575135        2.29250179541943        0.68612649679678
C           -0.41010107723443        3.05039250389096       -1.84030194950978
H           -0.85859117004987        1.13001334986877       -2.67333090840988
C           -0.73221028621416        3.98394504244146       -0.87049643960452
H           -1.99371243280891        4.43415280200574        0.79896943826732
H            0.38637017697950        3.25335705013985       -2.54123559891530
H           -0.19412259819621        4.91884407498009       -0.82084683124609
C           -4.37429070517808        0.53207310829975       -1.45123796891704
C           -5.04195454590964       -0.72655670819544       -1.70631717859914
H           -4.42264176599911        1.16790375645200       -2.33965703412412
H           -4.86705672364533        1.03948624684178       -0.61945670747875
C           -5.55150833458962       -1.78910960942363       -1.91093661126499
H           -6.01658033257849       -2.71309001232796       -2.08322589355393
Cl          -2.95996804300740       -1.57425093708365        2.53614186725511
Cl          -1.67536339122643       -3.40765609461136        0.40880886531344
O           -0.66687974275935       -1.04791178440158       -0.69574925928894
O           -0.43993504038893       -0.86221688232024        1.75123489004942
C            1.56761331377742       -0.80084802039452       -0.11939951315087
C            1.19667026693152        0.38558377693747        0.59427891981311
C           -0.23907465355002        1.37314467167378        2.22436351706643
C            0.81584902082457       -2.65529158813749       -1.40758823944087
C            2.07765743871785       -3.13020483693342       -1.57260721711501
C            2.91118643343261       -1.28609721656251       -0.20987279814975
C            3.17311137846760       -2.45731738427800       -0.96774699173511
C            1.82066972148046        1.65826868661440        0.39334718406567
C            1.43503372733108        2.76028359677384        1.19914014573465
C            0.38359980538502        2.57400449297232        2.14206932381780
H            0.06181224335348        3.39730081412661        2.75637879422122
H           -1.06377859459817        1.16104781301609        2.88605770960437
N            0.58225877653853       -1.52499720632417       -0.71736242183799
N            0.16909260944928        0.32305506415711        1.48928325184778
H           -0.06201103050844       -3.12908420610399       -1.81493178680002
H            2.24678986503987       -4.03027113803847       -2.13902708880818
C            2.74517769365137        1.88001440205682       -0.64042048111459
C            2.05360874347867        4.00072975129632        1.01595522185978
C            2.99715728666391        4.17696404148297        0.02788289039009
H            3.46862058874480        5.13828177759374       -0.10820156312960
C            3.32225282860818        3.11738390201191       -0.81501808392012
C            3.97285560764764       -0.69730177987028        0.49800427066474
C            4.48616666913495       -2.93695741635810       -1.06798049801494
C            5.51439478838566       -2.30942719646569       -0.40533244448424
H            6.52289444214677       -2.68507474924586       -0.48647992523321
C            5.24884095841289       -1.19935382033705        0.39631910123875
H            4.67195278267982       -3.81575552191831       -1.66690597466061
H            6.05093740895402       -0.73307165106942        0.94773005042601
H            3.78209826110882        0.15448147543220        1.13128845794428
H            3.00163087800407        1.07165968670345       -1.30668302968472
H            4.03045468674422        3.26679812446304       -1.61587995012741
H            1.76810373787691        4.82222669467325        1.65565130065832
