57
 energy: -99.562391342034 gnorm: 0.000818912159 xtb: 6.5.1 (b24c23e)
Si           1.22017694116418       -1.26577459514819        0.03155340220152
O            1.96796323833399        0.17887230237759       -0.01618677009400
C            3.03762735338649        0.69704687040928        0.73534838795028
C            4.36314637334157        0.37128919723981        0.09604043044131
H            3.00722240947966        0.27527976877855        1.74619271821290
C            4.46510272850294        0.23043729058915       -1.28033309638470
C            5.49889939373310        0.22506002137131        0.88096138349885
C            5.68543708756383       -0.05392206623645       -1.86635446286325
H            3.57785475661401        0.32315142787061       -1.88853051272823
C            6.71997597659177       -0.05321137976318        0.29423211024863
H            5.41968619661632        0.31720728498303        1.95439787567357
C            6.81611810688125       -0.19169787754396       -1.08040511751411
H            5.75250692995863       -0.17028299343564       -2.93811149092975
H            7.59800304289445       -0.17086289452634        0.91211500055832
H            7.76926702709563       -0.41436571922995       -1.53702733593307
C            2.84194178162614        2.22444518617170        0.81684904382771
C            1.56762364115756        2.54141784782435        1.42488409882846
H            2.87763878601258        2.64145489290562       -0.19343922029986
H            3.65481127205705        2.65409843244375        1.40672951637379
C            0.49235679019523        2.75242931920655        1.90610777000879
H           -0.43693853216802        2.95421107475491        2.34882010006754
Cl           1.58591937623581       -2.81362102308737       -1.25832978287109
Cl           2.30974126757940       -2.11832162841860        1.66382819792282
O           -0.15421404009611       -1.26082501075272        1.07335977406249
O            0.11873018688696       -0.64894005076400       -1.30644711411569
C           -2.19491334314054       -0.62433901999425        0.05733586426245
C           -1.60100194845894        0.60825297946639       -0.37058763476175
C            0.14122745853653        1.63056518656734       -1.61795960090557
C           -1.86039906479146       -2.78487991776112        1.01583121378381
C           -3.15396074243203       -3.14238101199823        0.82977630453275
C           -3.56196406973411       -0.96646773419172       -0.20628515792832
C           -4.05726035129228       -2.23020707432794        0.21113163293053
C           -2.15156090571154        1.89934536423986       -0.09295008431773
C           -1.54843145045777        3.04848587904189       -0.66591909490816
C           -0.38937350667658        2.87158927239019       -1.46832932898272
H            0.08553331703245        3.72616674564795       -1.91985769872245
H            1.03970781390205        1.42218769865760       -2.17419748854070
N           -1.41511828245873       -1.56187873597921        0.66976359487797
N           -0.44767788896311        0.54806620798266       -1.08646505320314
H           -1.11731108116093       -3.42088898053852        1.46971410661240
H           -3.49617994483755       -4.11993675105066        1.12390067022638
C           -3.21578192620200        2.07779189911236        0.80723935551731
C           -2.08228370153195        4.31517783104701       -0.39504129249358
C           -3.15498601208585        4.45701407984233        0.45424627005000
H           -3.55839902327067        5.43655811667424        0.66104813471228
C           -3.70768601059794        3.33484623629809        1.07146620417349
C           -4.41683286535331       -0.13404619267307       -0.94895652160765
C           -5.39203986552891       -2.56850096159721       -0.03381338268249
C           -6.22299007330301       -1.70684595444532       -0.71492259160279
H           -7.25158536738394       -1.97550306942834       -0.89991189130697
C           -5.72186112768322       -0.49801781572040       -1.19136018515985
H           -5.75630654154327       -3.52406104321218        0.31211151023862
H           -6.35935854072294        0.15941778353233       -1.76256563138276
H           -4.04595151919359        0.79975938928250       -1.33952581350099
H           -3.64421062027466        1.21800449294980        1.29836475874059
H           -4.52415409546748        3.45365793101836        1.76749101115751
H           -1.62645681085643        5.17935749114770       -0.85410808595003
