57
 energy: -99.558669755532 gnorm: 0.000512742004 xtb: 6.5.1 (b24c23e)
Si          -1.31607877818972       -0.46619114881243        0.63602851233539
O           -2.01262263480569        0.70264006063673       -0.23835453479449
C           -3.31381232995381        1.23109325286780       -0.11565359325824
C           -4.35184885371061        0.20457626136082       -0.48735900924525
H           -3.47197646094849        1.54676814143224        0.92347182948739
C           -4.12146037215633       -0.65511330781672       -1.55255953444673
C           -5.53532833457443        0.10315832083818        0.22935250041161
C           -5.06301025091824       -1.60801456846125       -1.89559248639544
H           -3.18905569651185       -0.58474776011135       -2.09273378936116
C           -6.47956346026895       -0.84620834126331       -0.11925520150444
H           -5.70809819847997        0.75954911180162        1.06961324203891
C           -6.24532448720256       -1.70265561146017       -1.18152351706691
H           -4.87266762834374       -2.27988661433801       -2.71963984535601
H           -7.39602926755608       -0.92412789969106        0.44687468248535
H           -6.98005777683067       -2.44852411101349       -1.44723496206826
C           -3.40236557003386        2.45141486670332       -1.04842149973644
C           -2.47196835330658        3.48210950720541       -0.64406092418764
H           -4.42295142723198        2.84159892206819       -1.02521834795485
H           -3.16568601148190        2.12958181562793       -2.06538129962093
C           -1.68336344729286        4.30666925632693       -0.28387667958608
H           -1.00873614890870        5.05293765457527        0.01136396840064
Cl          -1.78609999012781       -2.48226560206417        0.52366902119560
Cl          -2.45142155429976       -0.22779629583195        2.45539370275162
O           -0.20138095034755       -0.63769992057876       -0.81249222761499
O            0.07431825417746        0.03313279979883        1.53824847987528
C            2.03732923668908       -0.75730174602003       -0.18172831440694
C            1.93436624585732        0.61520466445577        0.21642430258333
C            0.65776858884653        2.24906118271529        1.39547974190466
C            0.90906658626719       -2.63553076981163       -1.10682203863297
C            2.03294115933750       -3.39819636306215       -1.08452421490476
C            3.23261242485411       -1.53513908212337       -0.06665735005996
C            3.23786844551783       -2.87105838384805       -0.54548387862690
C            2.82623910199974        1.64431139042102       -0.22690432400924
C            2.63009300470778        2.97573621656768        0.22553498407979
C            1.50677589907257        3.25019230857120        1.05719999837470
H            1.32460454118783        4.25602638591395        1.39517143757272
H           -0.22327789596157        2.38257042888067        2.00202683209562
N            0.92071243224357       -1.36175630874754       -0.67624020272472
N            0.89101195312349        0.98178094779361        1.01210057857941
H           -0.04397933308381       -2.98285687322201       -1.46924944857718
H            2.00597731988946       -4.41165356441083       -1.44737232020008
C            3.84283514057606        1.40481916777626       -1.16691014826594
C            3.50713505442487        3.98394705216298       -0.18872301604310
C            4.53157016093203        3.70821516297913       -1.06682641187007
H            5.20417358536183        4.49173675857360       -1.38046735262194
C            4.68017914181732        2.41895435113067       -1.57278269509416
C            4.38064893805305       -1.05360715277458        0.58560310033721
C            4.40616486354435       -3.63753251426718       -0.44159841094555
C            5.53250739483448       -3.12195773530184        0.15607333485496
H            6.42848241710274       -3.71870700968507        0.23289972182889
C            5.50873377021273       -1.83325906224887        0.68862216357458
H            4.40126498526778       -4.64488622988403       -0.82976168602752
H            6.38109794117830       -1.44551287508866        1.19212572443647
H            4.37262930032832       -0.06348007029127        1.01307182753716
H            3.96566840723928        0.41556737151881       -1.57778588450118
H            5.45588294528329        2.21213999528937       -2.29419691577686
H            3.36044597259808        4.98611756623667        0.18526437874743
