57
 energy: -99.558876014125 gnorm: 0.000959306360 xtb: 6.5.1 (b24c23e)
Si           1.71702676180081       -1.55136573582222       -0.33437689131978
O            2.44649152502894       -0.17042037358271       -0.77735999987909
C            3.13684749414467        0.93743777334975       -0.23775794538564
C            2.20104492185325        1.75889091322888        0.61837345670066
H            3.41641459889172        1.52545813840337       -1.12530960859862
C            1.63892480530424        1.22453384226643        1.77129780189541
C            1.85451907619946        3.04772360495277        0.23361178550771
C            0.72122405297890        1.95681160901540        2.50320473301223
H            1.90625000756102        0.22921931761367        2.08866670405774
C            0.95296752754780        3.78705833148009        0.97879997248863
H            2.29598264658909        3.47591613644422       -0.65544246581229
C            0.37325890334934        3.23734675226518        2.10853592041049
H            0.28090616916437        1.52588046798127        3.39025784918156
H            0.69682361794979        4.79038583228277        0.67221051359610
H           -0.34265401416809        3.80778825834810        2.68168524708902
C            4.42724227141641        0.56993568925346        0.51173814147875
C            5.32207683636405       -0.16502579030941       -0.35585795673938
H            4.19544093940400       -0.04255020804712        1.38338140512971
H            4.90230939359056        1.49869118389439        0.84046092900873
C            6.01389156462549       -0.77433708632538       -1.11827718258352
H            6.64641650348796       -1.32292207614231       -1.74962090540292
Cl           2.02563333797996       -3.23603806938266       -1.44224689461335
Cl           2.94857628795943       -2.17825266398195        1.29517269446446
O            0.46806961996241       -1.39844113778258        0.85150228499142
O            0.39120001879060       -1.18722334946462       -1.60267779292993
C           -1.68864956369777       -0.82255412859931        0.06529579900628
C           -1.13507445061158        0.29038047203876       -0.64725478167513
C            0.39173984423345        0.99187352073287       -2.32544344078657
C           -1.25360638360245       -2.84862150030921        1.25388234911113
C           -2.56778254921526       -3.16804194758731        1.32645697918565
C           -3.09025699955388       -1.12584934028038        0.08533774503562
C           -3.53866150610578       -2.29967695240775        0.74756970402042
C           -1.58794783603634        1.63935208298180       -0.50460063470702
C           -1.07516334822355        2.63860899514152       -1.36998745259036
C           -0.08135743026955        2.26531960959627       -2.31388059206915
H            0.32246202896992        3.00178211232968       -2.98810382879422
H            1.18134404487554        0.64456744466780       -2.97140748892509
N           -0.84334465470268       -1.70412357799229        0.67389553432093
N           -0.12143324809999        0.04662735660675       -1.52178532762776
H           -0.46112260483036       -3.45085133423513        1.66894277051378
H           -2.88142768010517       -4.08274838498295        1.79991205122085
C           -2.45964675310148        2.02653843513559        0.52629944281278
C           -1.52776965953867        3.95848022610166       -1.24329782850201
C           -2.42322187839817        4.30031308217824       -0.25750006271544
H           -2.76642642297353        5.31958494036444       -0.16529279310258
C           -2.86924683007262        3.33378512797325        0.64333307878801
C           -4.04014969263695       -0.35558779238215       -0.60690165605893
C           -4.90351126469003       -2.60274905863781        0.77824571874941
C           -5.81814288311220       -1.79724089314558        0.13684901613090
H           -6.86959418016125       -2.03808401608458        0.16544588430800
C           -5.37631528830663       -0.68490476673597       -0.57471721627551
H           -5.22587227319549       -3.48740183759176        1.30643989091597
H           -6.08644458603536       -0.07587577814720       -1.11300853947574
H           -3.72050541703441        0.50228054424830       -1.17584893426671
H           -2.80553665728640        1.28760657687152        1.23198904447135
H           -3.53951134041414        3.61459463849459        1.44135884716325
H           -1.14994340384124        4.70388378371639       -1.92701307392931
