57
 energy: -99.558536121068 gnorm: 0.000704115483 xtb: 6.5.1 (b24c23e)
Si          -1.37268788726690       -0.19285811407365        1.28034229514792
O           -2.06456107457405        0.70992612372881        0.13089868990081
C           -3.28783104136188        1.40805457483618        0.14179016720963
C           -4.46262550092472        0.47011193331060        0.23719994067550
H           -3.29966377148304        2.09096939713638        1.00091901234477
C           -4.42477817774633       -0.75482354225903       -0.41418604932258
C           -5.58764477950236        0.81952009690026        0.97027012347945
C           -5.49553730051807       -1.62547240008635       -0.32493166147991
H           -3.54112850176561       -1.02751351734678       -0.97183553914174
C           -6.66171566432922       -0.04847141062213        1.05158586896956
H           -5.61374822964782        1.76623544272064        1.48976548480511
C           -6.61702323335406       -1.27248018712289        0.40597460440275
H           -5.45294972693333       -2.58230620180054       -0.82410582237942
H           -7.53145843446215        0.22733886065684        1.62956028914261
H           -7.45226603385093       -1.95353933664404        0.47841388055486
C           -3.35153455667632        2.21848663862806       -1.16616487130568
C           -2.20840143242955        3.09704201431964       -1.28500719131810
H           -4.27707464060216        2.79893078984388       -1.18161168461825
H           -3.35303348174670        1.52080673695375       -2.00716678025440
C           -1.23807178911864        3.79356238723785       -1.35427156457476
H           -0.39374761486131        4.40887385020118       -1.44471053331224
Cl          -2.55555350823634        0.49860713483288        2.95472152219745
Cl          -1.78027350699410       -2.17596885247065        1.69312507251029
O           -0.25549546843884       -0.68900531758129       -0.08813186908643
O            0.01961047706945        0.48578191154189        2.05780338899974
C            1.99180487121214       -0.55518032587084        0.50391727442906
C            1.82182887701838        0.86542033719110        0.59432917314678
C            0.50263456788510        2.65154545322886        1.46509112510008
C            0.94207581976948       -2.64870392413279        0.08677526787224
C            2.10431812519929       -3.33259738153929        0.25016994150560
C            3.22989127731090       -1.22754496020937        0.75161126675255
C            3.29377207084217       -2.63736781259265        0.59974726484790
C            2.63762478553973        1.81697926295789       -0.09714458691528
C            2.38207064801795        3.20372362143063        0.07052440284212
C            1.28331443588962        3.59732109244807        0.88743684081619
H            1.05826939586281        4.64202626727803        1.02084285131381
H           -0.35850575864882        2.86982237432380        2.07558574873589
N            0.89899460150773       -1.30934000293880        0.19813970708820
N            0.78491241518172        1.34411511043260        1.33677318941412
H           -0.00086858369527       -3.11362831577616       -0.14844320836988
H            2.12136470548428       -4.40393234667583        0.14281189953780
C            3.63124087389394        1.42929292160854       -1.01182407830529
C            3.17661559230653        4.13979490527827       -0.60022681043135
C            4.17766306263136        3.73074276511372       -1.45317813205734
H            4.78507719813512        4.45983904815064       -1.96714968414858
C            4.38733314819433        2.37119492567119       -1.67184685266136
C            4.36776455489671       -0.55402683720845        1.22811321763491
C            4.50399776197600       -3.30330719107378        0.83428120249345
C            5.61654421180888       -2.61062753045287        1.25148939709706
H            6.54474488989082       -3.13094169218630        1.43170939769472
C            5.53784615162231       -1.23529735035634        1.46856501201664
H            4.54287196483712       -4.37278102153531        0.69224944312991
H            6.40095482042096       -0.70070846338787        1.83479871741494
H            4.31856282443473        0.50760825849672        1.41152586728863
H            3.79876112794026        0.38123129598801       -1.20194305987449
H            5.14599626445472        2.05141684940150       -2.36975036474608
H            2.98484917792282        5.19108265410903       -0.44419420421494
