57
 energy: -107.915285521422 gnorm: 0.000693393012 xtb: 6.5.1 (b24c23e)
Si           0.34805599481727       -2.66412628464234       -0.68950271507493
O            1.39761846084535        0.21873935223120        0.32991731605040
C            2.44405044730773       -0.05087613789873        0.88053872588900
C            3.53190267052683        0.90943739012452        1.09666352984818
H            2.61951695656509       -1.05233580149326        1.30362688653153
C            3.38791133383037        2.23237718061281        0.67588976383432
C            4.71169969631230        0.51187282168166        1.72448352685223
C            4.41081579276483        3.13875498990077        0.87161909777238
H            2.46268637467124        2.52498582292700        0.20099101467353
C            5.73378565040612        1.42210577001652        1.91465895187392
H            4.81779493819707       -0.51183000070404        2.05260024408089
C            5.58554886783348        2.73339491888099        1.48743559790876
H            4.29703722274010        4.16214877385302        0.54539582863315
H            6.65018238211319        1.11378796494575        2.39558282954320
H            6.38745970910208        3.44151368885828        1.63599322433931
C            3.90628329263881       -0.89735813027511       -1.32424374548927
C            2.88740598158289       -1.65547599248724       -1.59622583793801
H            4.78159622580380       -1.28737488958926       -0.83134489651541
H            3.94306555798911        0.13699043442174       -1.62661171661004
C            1.84811508719710       -2.38137427643619       -1.83434804936833
H            1.77493726651650       -2.89720268478692       -2.78170158530730
Cl          -0.77651734968345       -4.20652543443823       -1.39084973171361
Cl           1.49634344225091       -3.49196749154986        0.88091079497556
O           -0.53642463976658       -1.89839965649933        0.57654814497348
O           -0.66622460834570       -1.47130050759833       -1.87376738711492
C           -2.16030198615915       -0.25827714383757       -0.00555864254842
C           -1.16409088980434        0.48334491815073       -0.71507958222571
C            0.39769164178583        0.48421835293925       -2.48376764587244
C           -2.74910714086910       -2.29414022266918        1.07336321049041
C           -4.04108618426394       -1.92835297404131        1.24617156903328
C           -3.51813020812251        0.17930012723405        0.12011473258475
C           -4.46595995563002       -0.65453851897881        0.77122487061643
C           -0.86147513221121        1.85625335642187       -0.46303950835468
C            0.05851267402072        2.53354814030578       -1.30290943378608
C            0.65944709089464        1.81029414037410       -2.36490363527437
H            1.34556751322562        2.28267565813420       -3.04710296946963
N           -1.82843904658689       -1.49127108156057        0.49215830119407
N           -0.46510420126992       -0.17543529239072       -1.68302199896004
H           -4.73189797195543       -2.60480248616775        1.71864587528444
C           -1.36599048850257        2.53415543656841        0.65992709677583
C            0.37317748964436        3.87538061743414       -1.04646030904036
C           -0.16708978199376        4.52521183103796        0.03803531317524
H            0.08579260919721        5.55587402365056        0.23485410389545
C           -1.02388513058516        3.84306043647180        0.90265899559337
C           -3.98249541071623        1.37119681365788       -0.46424524238229
C           -5.79332009975113       -0.23467525783502        0.89865685970631
C           -6.20569856046288        0.96532119599866        0.36264598457963
H           -7.23188832889705        1.28234612388990        0.46494627632544
C           -5.29793717081326        1.75535082036777       -0.33824712732887
H           -6.49199718868905       -0.87399288367045        1.41615805341389
H           -5.62837697589266        2.67583295958500       -0.79457885837619
H           -3.30102320293123        1.99136920716149       -1.02326982409008
H           -2.01842202407371        2.01340798100470        1.34268436735024
H           -1.41467890516937        4.34516701207252        1.77433503715067
H            1.06018767168171        4.38315395680766       -1.70699422461928
F           -2.28992953186098       -3.45865770065577        1.50778256563956
F            0.92553107253519       -0.23657036753323       -3.46847902312694
