57
 energy: -107.996167532885 gnorm: 0.000600811587 xtb: 6.5.1 (b24c23e)
Si          -1.41460373063350       -1.68856860453920        0.30253162544573
O           -2.26617735748087       -0.31278359301630        0.48300897918016
C           -3.31497456299256        0.22152942513488       -0.30487353068528
C           -2.69199849762735        1.02703011544586       -1.41930937829662
H           -3.89481751014264       -0.60414604372119       -0.73052584228349
C           -1.88993964000611        2.12280759900903       -1.12622096779699
C           -2.83533207069130        0.62953317181730       -2.74151181463798
C           -1.23674371413714        2.80861228517973       -2.13397185696036
H           -1.76751154382915        2.43936747797158       -0.10110750251119
C           -2.18883815281624        1.32093482532284       -3.75137770959143
H           -3.43941898618790       -0.23393344019855       -2.97409628945152
C           -1.38551087525595        2.40789593900114       -3.45068521485344
H           -0.60867296411512        3.65356014472338       -1.88796481107623
H           -2.30479331007167        1.00219228613753       -4.77662700535687
H           -0.87371854528237        2.94029535668500       -4.23916131149629
C           -4.22703591400747        1.06006611726449        0.60193117647831
C           -4.86733479599562        0.21440948413607        1.58757028482913
H           -4.98229364669553        1.54857439749220       -0.01954939252771
H           -3.63966509513741        1.82617245436527        1.11372792942495
C           -5.35907135545912       -0.52288272828435        2.39084147326444
H           -5.80662775720051       -1.15489908675694        3.09773068497170
Cl          -1.51177060381628       -3.31574229620187        1.52414861124765
Cl          -2.48311986924120       -2.53982588455143       -1.31267394893558
O           -0.10940694636224       -1.43314099488237       -0.81371051075212
O           -0.25121070399841       -1.03100473146744        1.62653047825196
C            1.87365614640815       -0.46935221340306        0.06868608151923
C            1.11082243302280        0.59301499290606        0.65071185157088
C           -0.57905343059312        1.17822640820899        2.20234518108559
C            1.85271813495007       -2.62688683732213       -0.93828073900267
C            3.20041760315941       -2.74907028808036       -0.90676304601813
C            3.30207073126670       -0.54636717994401        0.15667263797268
C            3.97470871720652       -1.68498569736629       -0.36305597935529
C            1.36803106125748        1.98131503024399        0.42631031029344
C            0.66731222960836        2.95252515740540        1.18694716318364
C           -0.30267308933118        2.50652209926432        2.12454063802075
H           -0.84617721557923        3.20460274574337        2.73865133259368
N            1.20635314498748       -1.51808582708293       -0.50867178407636
N            0.08926805976994        0.24923888881636        1.48795954120922
H            3.66756218653518       -3.64861422385537       -1.26829869250292
C            2.23042020716988        2.42100944476055       -0.59250351914406
C            0.91893046118932        4.31382348090883        0.96971003352519
C            1.80387863466921        4.71416954017376       -0.00367194086293
H            1.98928530773275        5.76447648268996       -0.16833124476027
C            2.44347073434328        3.76312396073039       -0.79971349624501
C            4.07161420798464        0.42107880217200        0.82737807910593
C            5.36907220603279       -1.76623972451646       -0.28894384380996
C            6.09966620321779       -0.77267273955870        0.32276241108754
H            7.17488691065685       -0.84243581395713        0.37591849088276
C            5.44091700980796        0.30992382699234        0.90153245717251
H            5.86043741306264       -2.62925651886179       -0.71110984105046
H            6.00762921809529        1.06759503117369        1.42040890369895
H            3.58441680143727        1.26007677335745        1.29615843817212
H            2.72111646730413        1.69325057283825       -1.21906091695836
H            3.10557878857624        4.08366261990886       -1.58908236398382
H            0.39454891004824        5.04175974606954        1.56980693055398
F            1.07265314838513       -3.57606606699127       -1.43100409160796
F           -1.49445219319643        0.70624985050807        3.03327786184893
