57
 energy: -107.996113884639 gnorm: 0.000573766200 xtb: 6.5.1 (b24c23e)
Si          -0.60456301422981       -2.06837507159754        0.23319990531176
O           -1.83147224678391       -1.02900484053921        0.47815839181495
C           -3.20237977852176       -1.10018058153604        0.17759270423520
C           -3.64991089210706        0.17127821845937       -0.50717631019580
H           -3.37719508388873       -1.95027748791434       -0.49653239253969
C           -2.74392248503698        1.17018415835262       -0.83373565012746
C           -4.98900456531731        0.35282554292601       -0.83763534972545
C           -3.16434801504021        2.33962975466724       -1.44256868908638
H           -1.69589442715749        1.02426395782695       -0.62669491048231
C           -5.41040237678252        1.51900583796931       -1.44892613011753
H           -5.70632478852395       -0.42728887080685       -0.62969940806801
C           -4.50170384178550        2.52178365051487       -1.74462156247690
H           -2.43968226072148        3.10522192259908       -1.68381570602482
H           -6.45374225799730        1.64480077841582       -1.69908074869645
H           -4.83390419211709        3.43322405119306       -2.21942890876347
C           -3.97056702903467       -1.33949248820929        1.49360689587842
C           -3.57748200002517       -2.60703193117043        2.07197167046466
H           -5.04447984948970       -1.34003350387622        1.30035777353308
H           -3.73514369942854       -0.53338511304324        2.19335160997830
C           -3.20057531859680       -3.65582801001216        2.50633948446541
H           -2.87661783998863       -4.57308286689308        2.89779496436719
Cl           0.01518327054606       -3.61879684598449        1.39369096458855
Cl          -1.47622269056587       -3.22178251903263       -1.30711974934919
O            0.45797842728927       -1.38451136258960       -0.94971741180946
O            0.36910831253120       -1.02290169313199        1.49968942512764
C            2.07829145879173        0.16885174268365       -0.18359321112578
C            1.04156013843679        0.93821047750297        0.43700323317273
C           -0.68082286254181        0.95650570487171        2.05969829850651
C            2.69248184961524       -1.91335033985323       -1.16079324887101
C            4.00958844601519       -1.60240751837974       -1.19685078099985
C            3.45679504166197        0.55372220021267       -0.17743809396657
C            4.43104655373303       -0.33027792972006       -0.71484414222467
C            0.79268397309733        2.32101963099586        0.17428898101339
C           -0.18858121711956        3.00936570481471        0.93442852619194
C           -0.90244407284009        2.28984608205168        1.92838899162409
H           -1.64078639025494        2.77445284273153        2.54353882650721
N            1.74964614811413       -1.05198399125178       -0.71488883249806
N            0.24104014312334        0.29039230794410        1.33353195336268
H            4.72082342527413       -2.32023430460362       -1.56695387705478
C            1.41685253774174        2.99933158353746       -0.88731861320270
C           -0.45057896672759        4.35918230213293        0.66476716678796
C            0.20565761579834        5.00863014505612       -0.35391366894801
H           -0.00499878193135        6.04682514050550       -0.55938956087667
C            1.12818484541849        4.31886718804725       -1.14187158665984
C            3.90700330837562        1.74034290046366        0.42861148999087
C            5.77996931712714        0.03839633567789       -0.71771331863785
C            6.18314209220231        1.23417321840482       -0.16683336689810
H            7.22563814938099        1.51152816315564       -0.17332541980783
C            5.24205453271293        2.07261977295255        0.42660932439779
H            6.50083056040680       -0.63766751526759       -1.15096447097530
H            5.56164358703441        2.99007343739402        0.89631759677133
H            3.19888779870852        2.39749534873992        0.90616591923375
H            2.12156937656993        2.47115747865840       -1.50996676572599
H            1.61363083255688        4.82288205516516       -1.96323085721348
H           -1.18803066625018        4.87333275518221        1.26164213506257
F            2.23173882853997       -3.07380256690124       -1.60080022977575
F           -1.33343295999551        0.22967996051566        2.95455474054280
