57
 energy: -107.992909146648 gnorm: 0.000710189931 xtb: 6.5.1 (b24c23e)
Si          -1.42259444420845        0.08504759672544        1.33921557812045
O           -2.40105413839876        1.03446943490381        0.49351435273251
C           -2.79546125052443        1.03300166575140       -0.86451293129689
C           -3.59475424954079       -0.20214408405263       -1.18321987223550
H           -1.89653237202174        1.05836360488105       -1.48882309146469
C           -4.50703662541670       -0.69635727211016       -0.26089187623854
C           -3.41685798031918       -0.86488264839080       -2.38891127064923
C           -5.22532587451983       -1.84526133895566       -0.53779585216075
H           -4.63517726322665       -0.18794204513614        0.68349768025070
C           -4.13982797574858       -2.01071916064160       -2.66731250742360
H           -2.70070949729636       -0.48708298144452       -3.10441653761441
C           -5.04329364634424       -2.50390725205309       -1.74170315520951
H           -5.92480766960807       -2.22867331925677        0.19016277964937
H           -3.98960980201349       -2.52566720319144       -3.60484964095593
H           -5.60012950780525       -3.40422426057415       -1.95584700998380
C           -3.61899035360324        2.31116767281969       -1.09578277517433
C           -2.77837527580968        3.48362111092828       -0.98454434053966
H           -4.41075979662857        2.35727780145348       -0.34468320801246
H           -4.07036853140647        2.26975647927181       -2.09051978448772
C           -2.03555988566917        4.41693445518198       -0.89230964364183
H           -1.42062339260951        5.26161774054003       -0.80291658428138
Cl          -1.53691393429786       -1.93935919463953        1.55672215519868
Cl          -2.14446536686236        0.64774603995185        3.18251206928400
O           -0.49361891573648       -0.33830981949137       -0.55423219006627
O            0.16097691532259        0.61536475959506        1.68937103994477
C            1.75592367755356       -0.69124124744201       -0.12184262143159
C            1.87294903472969        0.72646373696140        0.05941367271288
C            0.83101072515423        2.69449516374895        0.91199991180849
C            0.35056884240685       -2.45993350780650       -0.81522621470968
C            1.35062269514987       -3.37839996428271       -0.76610868009251
C            2.82771611900180       -1.61825646676839        0.04224264286517
C            2.62497868777181       -2.98315642468518       -0.28801444217368
C            2.82551619792171        1.54272269285080       -0.62531769154223
C            2.75573825924781        2.95632743347666       -0.49185651378333
C            1.70456860989636        3.52010145407767        0.29009929460464
H            1.59455498883936        4.58650610859155        0.38168628897032
N            0.52497304010113       -1.16198143945634       -0.47829485105002
N            0.92638255530419        1.34871933176204        0.83702361715742
H            1.15533736469496       -4.39469614762468       -1.06187661681319
C            3.78237356417773        1.01071003826230       -1.50818615555093
C            3.68079644100108        3.76459756611282       -1.15677131765963
C            4.64157613546251        3.20963775946743       -1.97485458311323
H            5.35244246142304        3.84168387861838       -2.48381487579247
C            4.67327853939015        1.83072494377347       -2.16307094244850
C            4.05715041905280       -1.23794306436951        0.60913433636306
C            3.67584300434266       -3.89711283547562       -0.12052774401165
C            4.87982635105816       -3.48895743795522        0.39940019124722
H            5.68210370422332       -4.19843571360041        0.53175041468870
C            5.06211559205101       -2.15814100020333        0.78198452016478
H            3.51439841487826       -4.92835978056661       -0.39460888264323
H            5.99765087604046       -1.85222850458751        1.22407689831265
H            4.20132882138948       -0.21430549099864        0.91727645289706
H            3.81715221741283       -0.05291692201390       -1.67833864997992
H            5.39967751010951        1.39716976107048       -2.83318539222311
H            3.62482138372192        4.83434471505340       -1.02518791706282
F           -0.85435490145974       -2.76672833367368       -1.27953681488568
F           -0.15235949774818        3.15298691562301        1.67214628142783
