57
 energy: -107.986326162901 gnorm: 0.000960860177 xtb: 6.5.1 (b24c23e)
Si          -1.22322673300840       -0.84256699396408       -0.48530392241434
O           -2.68794271592372       -0.49381618435770        0.15983527542103
C           -3.45284960437311        0.68370020031112        0.18278178439354
C           -4.81800442305421        0.36142707099110        0.73959559526170
H           -2.94730720436604        1.40734705291232        0.83431562847354
C           -5.48972961373940       -0.77476951548036        0.30905851606808
C           -5.42895072428982        1.20959595926860        1.65237828336060
C           -6.75635604286693       -1.05834313595125        0.78696780205496
H           -5.00443072182049       -1.43809261360035       -0.39066206816952
C           -6.69813868892470        0.92734456692248        2.12638951950270
H           -4.90706285002084        2.09293472924701        1.99299610590366
C           -7.36448662253827       -0.20636146414843        1.69359639517159
H           -7.27180681421014       -1.94548652670226        0.44926606670406
H           -7.16636688784373        1.59212255298279        2.83791377622133
H           -8.35460528019966       -0.42671349657780        2.06522704800515
C           -3.63810225900052        1.31233168878724       -1.21621492771410
C           -2.41935901878613        1.86783636433001       -1.75814838215371
H           -4.38982148960378        2.10231767105515       -1.13539747617106
H           -4.00283037171901        0.53907968370079       -1.89659952794837
C           -1.40272027056029        2.32035987048820       -2.20143805994860
H           -0.53246351334301        2.72838841424070       -2.62371095088091
Cl          -0.94593949409524       -2.49252268123749        0.69691196027726
Cl          -1.85109157794911       -1.13473401209648       -2.43482123006584
O            0.45230344030395       -1.01633967799656       -1.31087871831106
O           -0.46593855836766        0.43129774101550        0.48826277556243
C            2.20169505156086       -0.46465116655209        0.12544274240786
C            1.82710458117135        0.91316528294563        0.00672534209936
C            0.20331473782149        2.61416823572471        0.29267661926706
C            1.84319787309254       -2.69936557308501       -0.57719468857476
C            2.91015381734128       -3.17375054796903        0.11428198264093
C            3.29770254602744       -0.90584330466477        0.93392467536258
C            3.65831265284548       -2.27873766984311        0.92310172650259
C            2.78982666340620        1.92465981371798       -0.32215650009293
C            2.42204459551340        3.29415823291747       -0.28373544794394
C            1.08723378043893        3.61963595871747        0.08888645482198
H            0.76707612904474        4.64200459627268        0.19046910380122
N            1.49685630769406       -1.39323192354156       -0.57329704407479
N            0.52461374742509        1.30014300573132        0.20121878861024
H            3.15709729715883       -4.21994388946057        0.06458287332813
C            4.07982638052786        1.59899601432070       -0.77551284160864
C            3.35839117721739        4.27858789423238       -0.61238250224491
C            4.62949566167218        3.92991728375568       -1.01290787680557
H            5.34615406691914        4.69443934512948       -1.26948564416980
C            4.97968221744398        2.58537292416070       -1.11014501080401
C            3.97348812848520       -0.04503847790598        1.81674562405322
C            4.72472891254245       -2.72061228017635        1.71826933165355
C            5.39608367200351       -1.84603637988548        2.53878007593756
H            6.21334689080036       -2.19429727010527        3.15120278356510
C            5.00349978061033       -0.50837449477483        2.59964045758679
H            4.99957316975092       -3.76342523665452        1.68195823016635
H            5.50782250773806        0.16754955101283        3.27281998427281
H            3.67518742415869        0.98899827863955        1.88374150927314
H            4.36438947938468        0.56356119007573       -0.87140650039106
H            5.96288888461916        2.31116872763840       -1.45990942273021
H            3.06349594196429        5.31525826208677       -0.55692017299908
F            1.12360469483118       -3.47408765911800       -1.37086166744123
F           -1.04152273093180        2.86677201253627        0.68051474591172
