57
 energy: -107.996852578834 gnorm: 0.000769954947 xtb: 6.5.1 (b24c23e)
Si          -1.66227433139657       -1.36088177793937        0.92161266437969
O           -2.84417139747624       -0.56829950230571        0.16833947571109
C           -2.95229903828260        0.01031129612002       -1.12001507345432
C           -2.36048446174331        1.39662687747060       -1.09871618178831
H           -2.40989453620405       -0.61347343674807       -1.83487709276862
C           -2.82975838024967        2.33749094414398       -0.18969087349077
C           -1.32678786961317        1.74370475876729       -1.95801277814623
C           -2.28966705599149        3.61097927212472       -0.15988102722445
H           -3.61035952100886        2.06421872657194        0.50412500470692
C           -0.77581596540097        3.01276146960756       -1.91694843687316
H           -0.95214897924967        1.01229028316712       -2.65853423148507
C           -1.26252330048396        3.95193534762469       -1.02394798253414
H           -2.67192601751484        4.33814818223934        0.54148157511035
H            0.03445196029845        3.27060093432525       -2.58358103286714
H           -0.83824297424817        4.94491314075315       -1.00071414267763
C           -4.44257475750751        0.03721335816627       -1.49561546139423
C           -4.93284696021322       -1.30640542175938       -1.71810587878094
H           -4.56926575952540        0.63507323649671       -2.40246128926502
H           -5.00760403135042        0.49624183586420       -0.68170436025735
C           -5.29908053595533       -2.43107352523129       -1.89602404532419
H           -5.63566365955505       -3.41251308312557       -2.04803858537764
Cl          -2.76367515049084       -1.59552406513544        2.65479525152622
Cl          -1.07291186612773       -3.30860923128293        0.71643982699202
O           -0.52327947372782       -0.94818942344446       -0.73529460843094
O           -0.39387118411488       -0.52735069652646        1.73281686736132
C            1.67848511243918       -0.61430442327788       -0.09418705613368
C            1.25835145675847        0.62871863679684        0.48266743837984
C           -0.32339110019980        1.77967608673217        1.83535242208269
C            1.05483792677488       -2.49003619836222       -1.39336344483284
C            2.32348652327240       -2.97059315902299       -1.45405941298145
C            3.02261160028219       -1.09639871934727       -0.05895548965914
C            3.35046387741832       -2.29269153484099       -0.74843573058809
C            1.87988019317733        1.88018308083054        0.18010093050288
C            1.40090183444174        3.06849538232207        0.79144286511645
C            0.26788465241427        2.98261247030764        1.65044728024027
H           -0.14502048801665        3.86084353686224        2.11455539765195
N            0.72731673830832       -1.36519873914219       -0.71863868889183
N            0.15702211721829        0.63498690661920        1.30042618162927
H            2.52961490309242       -3.86441746761976       -2.01705135296887
C            2.89917353547579        1.99593027687615       -0.78130067522714
C            2.00719488802101        4.29322048967001        0.50170227501421
C            3.03775942918146        4.36904255248588       -0.40996365728780
H            3.49815782922862        5.31930476816014       -0.63170738530447
C            3.46526701311015        3.21766652961994       -1.06602933543515
C            4.01877640868546       -0.47094768392928        0.71131830255938
C            4.66696199193143       -2.77387429658114       -0.71005016827089
C            5.62971036006208       -2.11836637176989        0.01883666773324
H            6.64016047781656       -2.49599742976806        0.04682122712339
C            5.29713770893638       -0.97321635328921        0.74476275241729
H            4.90567403526290       -3.67433514787408       -1.25476484408640
H            6.04877562440658       -0.48224712871201        1.34337736996592
H            3.76977205835554        0.40792435887771        1.28459443519212
H            3.23663381188407        1.11753770638215       -1.30725060695623
H            4.24429680828232        3.28206703311652       -1.81012725439780
H            1.64438422992791        5.18151730207912        0.99552514005142
F            0.06298713534795       -3.04928736391017       -2.07361810864634
F           -1.40338044616437        1.63951439976489        2.59074494236082
