57
 energy: -107.990069201397 gnorm: 0.000380774988 xtb: 6.5.1 (b24c23e)
Si           1.14747278057460       -0.47853213377931        0.82241253482476
O            2.60220243873000       -0.16428248552389        0.14534876674562
C            3.82532022724215       -0.84205702416093        0.21423801332207
C            4.84466235927517       -0.12236823503972       -0.63423034933014
H            3.68261793216791       -1.86717858240618       -0.16183917774200
C            4.74878721341966        1.24666944607421       -0.83925984839462
C            5.91624141403002       -0.82056100918509       -1.17614837456095
C            5.71165837298681        1.90780708038289       -1.58131844621918
H            3.90877362186207        1.78040659584307       -0.42284328482085
C            6.88097370933645       -0.15683396093862       -1.91226566223159
H            5.99204243556862       -1.88800133708005       -1.02121452041837
C            6.78066989231911        1.20948193282024       -2.11612295196505
H            5.62842054976141        2.97319600359530       -1.73993005088467
H            7.71159112410869       -0.70715243740685       -2.33031025537281
H            7.53400853140392        1.72675690029244       -2.69234615422012
C            4.34915913424362       -0.92256208562012        1.66614258583819
C            3.58046349543610       -1.86429999872133        2.44870915743202
H            4.27672058842473        0.07227422221162        2.11257507307066
H            5.39769969450024       -1.23059766629315        1.64586161585463
C            2.91217730926573       -2.65427495153755        3.05010168784681
H            2.32806694544920       -3.33842256539074        3.58883787544718
Cl           1.39851977325030        0.60041793212653        2.55413293228494
Cl           1.01550268733246       -2.46457396544587        0.22439233327705
O            0.31832243439466        0.37286803662516       -0.41299275387243
O           -0.63744839959838       -0.69526883515913        1.64711674680271
C           -1.95468013884336        0.90690530809034       -0.04422159019783
C           -2.26119303513359       -0.49421597293540       -0.00092631583498
C           -1.89544630285824       -2.55304508217701        1.10969028300159
C           -0.25938468219503        2.57831456404369       -0.04200976378727
C           -1.14608111807140        3.59619203638347        0.05918812918842
C           -2.94235636848382        1.93262881501734        0.09065141125504
C           -2.53716015090654        3.29443221949201        0.12233744738273
C           -3.23395394479032       -1.12745060022833       -0.83245217093486
C           -3.54239792158877       -2.49729761762333       -0.62451367139695
C           -2.86108293092881       -3.19676215990871        0.40460351616376
H           -3.07942125307762       -4.22909342420429        0.61685088995655
N           -0.63860396781372        1.28405831869422       -0.12358023498653
N           -1.58520905982287       -1.25369879297855        0.90864095020140
H           -0.79515156147253        4.61195371865636        0.11444937175825
C           -3.83877332397853       -0.45987132866137       -1.91256248654330
C           -4.49620508791508       -3.12213688914526       -1.44028557011143
C           -5.10358959761995       -2.43143753545590       -2.46132716832271
H           -5.83511256884141       -2.91963081723779       -3.08660648290864
C           -4.75786534865628       -1.10140352489377       -2.70718398030182
C           -4.30431938791365        1.64538985670866        0.29261088534892
C           -3.49563885390584        4.30303713179047        0.25637737783183
C           -4.82984986305711        3.99126708501446        0.39917209144689
H           -5.56307899469816        4.77577565441077        0.50321717233784
C           -5.22610272285037        2.65660564738999        0.43807355678495
H           -3.16931736251683        5.33167406101867        0.25715474226653
H           -6.26545914129905        2.40970088670071        0.59079560544231
H           -4.63081896923877        0.61946818195524        0.34024430801543
H           -3.57053859011208        0.56462424921997       -2.11682066605138
H           -5.21156070886979       -0.57441484442360       -3.53232960734874
H           -4.73541381912423       -4.15841531646024       -1.25734314278510
F            1.04667249719205        2.78978630180994       -0.11914896977273
F           -1.24903298609437       -3.14288000634293        2.10395959018405
