57
 energy: -107.644970529828 gnorm: 0.000399851235 xtb: 6.5.1 (b24c23e)
Si          -1.19263824597049       -1.51008226244987        0.57977626789670
O           -2.27302136790573       -1.16309974331124       -0.56965980964833
C           -3.46553653118564       -0.41649399931331       -0.52336566810824
C           -3.16361514108862        1.03682216088650       -0.80223441406690
H           -3.92376299120301       -0.52183286798718        0.46942669594382
C           -2.05263851527135        1.38207971563801       -1.56101859859528
C           -3.98540677536858        2.03968055441353       -0.30456823196095
C           -1.75709908502871        2.71138162725728       -1.80544077498209
H           -1.41638744882079        0.59794249330910       -1.94178501922669
C           -3.69215199259306        3.36838153955150       -0.55472418098221
H           -4.84976230331368        1.77619771574818        0.28811524461763
C           -2.57580060691038        3.70719103573361       -1.30146470503817
H           -0.88519186781008        2.97017528080109       -2.38932175908487
H           -4.33408992171322        4.14230142885697       -0.16038547785341
H           -2.34501530920046        4.74504100126726       -1.49189125595820
C           -4.42369025376570       -0.98361125705694       -1.58604185558012
C           -4.86614884721556       -2.31051052566377       -1.21426409633864
H           -5.28541069603946       -0.31781705764598       -1.68233999124283
H           -3.89445370664560       -1.02530001658273       -2.54113571849365
C           -5.20874948042148       -3.40073659871087       -0.86124522111856
H           -5.51507523706262       -4.36028295258990       -0.56953850488575
Cl          -2.55946344230767       -1.69315381507927        2.22430386394029
Cl          -0.37883051397462       -3.36974791883866        0.86751874929766
O            0.02388426481006       -1.15520943877209       -0.81810838801623
O           -0.31131403246366       -0.34720103818321        1.51273093541314
C            1.99888480576818       -0.27278715150347        0.00820213072491
C            1.27509815677644        0.92710796409682        0.32035186953944
C           -0.61247039246408        1.94270092689855        1.37893756642770
C            1.97229134700478       -2.38397063228728       -1.08909394098328
C            3.31390350345138       -2.55276213344433       -0.91131537503784
C            3.39198610523824       -0.42904662284681        0.28278739718850
C            4.05888830441044       -1.59181225376698       -0.18195065473974
C            1.71487277198428        2.21679346611209       -0.11558022641592
C            0.97434896277773        3.36742674620088        0.26148824573369
C           -0.20022685373695        3.19418931388968        1.04277680422127
C            4.10718350453544        0.48646980559876        1.07437682595406
C            5.42393158953698       -1.76033569005736        0.09155653857047
C            2.80592010023488        2.38526628908116       -0.98613203851927
C            1.39124174870262        4.63307094719374       -0.16460337308944
H           -0.78319840162241        4.04586423330610        1.34524390849923
Cl          -2.01882079401455        1.66516207403791        2.30529172953500
N            1.33160731699720       -1.29204923579872       -0.60403634507851
N            0.10460277585397        0.84572629085773        1.02438921234404
Cl           1.03021575443115       -3.47313442807408       -1.99724491188919
H            3.79830307044575       -3.42445147527316       -1.31551344000386
C            2.49299958973460        4.77180449698512       -0.97889415581473
C            3.18685173494069        3.64024140407009       -1.40300266965785
H            3.34744699695584        1.52112044069767       -1.33567131873857
H            0.82638718778180        5.49700448383620        0.14990250758169
H            2.80823707574342        5.75099641075470       -1.30458390485307
H            4.02773556675260        3.74615395326408       -2.07103398646694
C            6.10802523485984       -0.82868670686900        0.83536160304681
C            5.44081715960616        0.28837407494152        1.34086629099978
H            3.59911766150133        1.34736035986443        1.47921337756021
H            5.92298631180345       -2.64000779337720       -0.28460074614731
H            7.15756692028383       -0.96632941564461        1.04513869282669
H            5.97464523219184        0.99902079596614        1.95275730074158
