57
 energy: -107.646790167742 gnorm: 0.000778411653 xtb: 6.5.1 (b24c23e)
Si          -1.57306927243101       -1.47500845148033        0.32435904500219
O           -2.33647781560830       -0.05788293803241        0.49185849281123
C           -3.09404023725163        0.90995429715868       -0.20147725532901
C           -2.19216680416861        1.69689860914737       -1.12295961112364
H           -3.46006025605817        1.57547978092381        0.59546014015652
C           -1.48286983929561        1.05971262596847       -2.13348264745009
C           -2.03086328597823        3.06432623960182       -0.94175254884418
C           -0.61099586764661        1.77775383385154       -2.93218310686542
H           -1.60370047916585       -0.00083972153533       -2.28864413107660
C           -1.17332702394229        3.78437234146792       -1.75443046205867
H           -2.58290896877184        3.56825889853804       -0.16095807656588
C           -0.45368988049073        3.14038215567194       -2.74544807498879
H           -0.05772067608010        1.27053389771089       -3.70866596855288
H           -1.06258081669532        4.84880461776716       -1.60967672116891
H            0.22427826566997        3.70002754183739       -3.37265418011797
C           -4.31543308611642        0.34092721898656       -0.94005865664548
C           -5.16029257896958       -0.38702885559065       -0.01765826647879
H           -4.86704426187424        1.17871502407957       -1.37584515923795
H           -3.99485663977271       -0.33069171713444       -1.73714760248493
C           -5.80721971287697       -0.97783082765697        0.79674956187803
H           -6.39387124207188       -1.51678555036680        1.47860175329477
Cl          -1.92474218251607       -2.96728282307819        1.65998147992461
Cl          -2.62492713015226       -2.36033267399531       -1.29337618465986
O           -0.20903410595956       -1.43265635272266       -0.73577875871575
O           -0.34437882365962       -0.83913772915671        1.66020653740852
C            1.81460576888605       -0.55475558268060        0.09524288902344
C            1.11140478282786        0.60181299098196        0.56415473402224
C           -0.52979501297462        1.42870030675684        2.06932026391866
C            1.64283110445673       -2.81651817587176       -0.67510602707481
C            2.98742282069055       -3.00207240852877       -0.59446076370800
C            3.23329269397831       -0.70371300609756        0.20916370311726
C            3.82884918792638       -1.93590943355983       -0.17159132525188
C            1.44943982870683        1.93949131447014        0.19824792354285
C            0.81387380543369        3.01869399531204        0.86168383308176
C           -0.16540454606471        2.72329743044104        1.84238938764728
C            4.06138479006849        0.28252810857517        0.77376281979260
C            5.21535306820968       -2.09855634035045       -0.07384211124845
C            2.32962646909325        2.22282907718768       -0.85961365118574
C            1.15286586262683        4.33503830741173        0.51793613623324
H           -0.64829143981664        3.51584476362828        2.38717080808513
Cl          -1.72664741547397        1.00422352089611        3.20544737261215
N            1.08781953137403       -1.61132470286619       -0.38627419951997
N            0.07738050170889        0.40087456174390        1.43155641787520
Cl           0.56807936709880       -4.04931022285549       -1.17037239107208
H            3.40958574057164       -3.96274213352051       -0.83195354654774
C            2.05648436777523        4.58345769029080       -0.48702822288445
C            2.62712916970947        3.52263744009858       -1.19178969637516
H            2.77019056096201        1.40807020814924       -1.41226308067075
H            0.68219534287299        5.14731952015921        1.05023682954198
H            2.31223981152232        5.59909057500963       -0.74768787496917
H            3.30535392529974        3.72460519295819       -2.00646061980763
C            6.00766152044493       -1.09121226108826        0.42858595995619
C            5.42025423682514        0.09126052010362        0.87369115014122
H            3.62853686021012        1.19984913758360        1.13756218134249
H            5.65019987758634       -3.03402834101829       -0.39056516429263
H            7.07601431804247       -1.22381855267655        0.50046333228558
H            6.03470682130486        0.86498105739383        1.30784233427894
