57
 energy: -107.648254625403 gnorm: 0.000381710035 xtb: 6.5.1 (b24c23e)
Si          -0.45876460935701       -1.93045080366042        1.01547229685303
O           -1.83858284446215       -2.23218199380559        0.23149077368364
C           -2.27064324342746       -1.92855965995729       -1.08381014433668
C           -2.81574481272962       -0.52327047640041       -1.10536711576930
H           -1.41984773581006       -2.00299619920898       -1.76587362526161
C           -3.87918265952730       -0.17693208889449       -0.28054715724271
C           -2.23502228605407        0.45169703256206       -1.90513798856637
C           -4.36583425251302        1.11781117653430       -0.27249899798132
H           -4.31714059663036       -0.92376440553561        0.36409060595108
C           -2.71740848836966        1.74880231433089       -1.89246002626074
H           -1.40009830396690        0.19069426423233       -2.53879333217993
C           -3.78734409354699        2.08260372861117       -1.07989767258262
H           -5.19666015207555        1.37426789914877        0.36794324819476
H           -2.25603166115648        2.50114798613785       -2.51584404763626
H           -4.16727409155367        3.09351830680954       -1.07655551847863
C           -3.32669029719265       -2.97173184710488       -1.48124656326406
C           -2.69887056570551       -4.25500424853622       -1.71525541050137
H           -3.83707855871761       -2.63642906769975       -2.38831587293907
H           -4.05496042509881       -3.06920745161504       -0.67369466351015
C           -2.13050894365077       -5.29058482580018       -1.90424928469304
H           -1.65648958026002       -6.21267683434164       -2.06220041583506
Cl          -1.25221543203892       -2.69386611759773        2.79532822925171
Cl           1.26969878389532       -3.05013403189204        1.08032446541932
O            0.18621618343649       -1.07684007846288       -0.61086237883100
O           -0.12257066013719       -0.41698196634339        1.77374444454392
C            1.62122084881191        0.65622228619723       -0.07140606411815
C            0.47656729285839        1.39171701994799        0.38398518829824
C           -1.53605796309240        1.41433073152203        1.67478998745030
C            2.40460636573215       -1.26196665616067       -1.23784644580692
C            3.68299018867871       -0.78985866641854       -1.26852204661966
C            2.95453108669878        1.16374603780232       -0.00609077966820
C            4.00361583787919        0.42416615714533       -0.60989389017464
C            0.19639277783706        2.71946802794944       -0.06628435277842
C           -0.95056669737496        3.39203312655181        0.42942210145903
C           -1.81123464029705        2.69908678699309        1.32396879086786
C            3.27738670030547        2.32598509603740        0.71539946180038
C            5.31852297152416        0.90603025141396       -0.53651269074686
C            0.96302790399573        3.35682082726563       -1.05755490471088
C           -1.23426291307154        4.69190893360758       -0.00223345968867
H           -2.69812081148455        3.17562914464454        1.70207763109659
Cl          -2.54225507507153        0.51419056071886        2.71770957890465
N            1.41506971916116       -0.57564896867580       -0.61590856721272
N           -0.41486416154046        0.79067709175050        1.23174109678138
Cl           1.93991245919613       -2.69209363615624       -2.04277903085823
H            4.44675261369910       -1.35179934589910       -1.77729047734130
C           -0.43568952240153        5.31143217999521       -0.93774956582474
C            0.65195750175450        4.62938476649273       -1.47893377061671
H            1.80202729181549        2.84183144799623       -1.49692501688877
H           -2.09739493055365        5.19607972018824        0.40422484743314
H           -0.66155092089397        6.31375880492570       -1.26741273360687
H            1.25465424638973        5.09932398982399       -2.24097956811609
C            5.60057598191124        2.06554163289156        0.14535984981364
C            4.57725128456692        2.76672100234013        0.78552931226793
H            2.49532107398207        2.86858602775106        1.22263309221903
H            6.10457016729710        0.34270062904944       -1.01534034976644
H            6.61542200685474        2.42801004788936        0.20241095768900
H            4.80965164145102        3.65822433287616        1.34732397043243
