57
 energy: -107.640482323429 gnorm: 0.000375784500 xtb: 6.5.1 (b24c23e)
Si          -1.09917689455654       -0.26447828075228       -0.59464509524792
O           -2.68228195402473       -0.38420197296492       -0.86572843401927
C           -3.73250831082499       -1.16681105781986       -0.35367151936629
C           -4.70841129028700       -0.28835240652256        0.38704339125906
H           -3.33301854656507       -1.93051695520350        0.32315662764092
C           -4.84866294017330        1.05032612805400        0.04824956348995
C           -5.49031617536504       -0.82105349451066        1.40368016098294
C           -5.75524957461754        1.84826468841596        0.72333091050657
H           -4.23408614570629        1.46083964107821       -0.73841372383429
C           -6.40227549723974       -0.02385596100284        2.07149072333813
H           -5.37794690098934       -1.86149964559006        1.67424523447963
C           -6.53546794892115        1.31267859422622        1.73358229326232
H           -5.85363552560708        2.89087286433488        0.45799297386684
H           -7.00643472965232       -0.44513581578729        2.86176574117876
H           -7.24432087061531        1.93537996968077        2.25940911977694
C           -4.42392913350116       -1.86335826748578       -1.54185058476279
C           -3.51891123841912       -2.79716497762577       -2.17618138190745
H           -5.31146488395053       -2.38903846593546       -1.18094993105883
H           -4.72713734002674       -1.10017088498458       -2.26335291910524
C           -2.73327559066349       -3.55141646609014       -2.67126722442331
H           -2.06343330076716       -4.22073589975955       -3.12240506013488
Cl          -1.08826280165740        1.26440857614847       -2.09515284183965
Cl          -1.00624977569134       -1.92436767648943        0.83905287412712
O           -0.41844110439781        0.71044512891417        0.65617228917452
O            0.39293020136664       -0.76682880816256       -1.33439008340430
C            1.81270841588273        1.09874779760369        0.07332918351455
C            2.09298389084762       -0.31069467364703        0.19560498926458
C            1.66140023946031       -2.54274352068735       -0.53889661607299
C            0.24216452988798        2.89326783062678        0.24052065461482
C            1.19219007499527        3.82764487574676       -0.03481962933370
C            2.83537456637016        2.03496511567822       -0.27082886884604
C            2.52358644013575        3.41979432060605       -0.31263757110225
C            3.12581270531202       -0.79998043138456        1.05210266737993
C            3.42793715177095       -2.18741643996112        1.05427233311354
C            2.67706448893603       -3.04947898730111        0.21199866724913
C            4.12507793575157        1.63001128564197       -0.66136452759251
C            3.52009082975450        4.34446068930404       -0.65040735159310
C            3.79685264325120        0.03190324655915        1.96703998438650
C            4.43475173047326       -2.67525854256844        1.89737263803120
H            2.88497238599549       -4.10504456565488        0.18881178213727
Cl           0.70527601259012       -3.50559160623478       -1.56080044227747
N            0.55641360423915        1.57748183493677        0.30868913033928
N            1.38781412080782       -1.21665164211261       -0.54215537067976
Cl          -1.37337183519903        3.29639135851355        0.58044314032464
H            0.92381106490305        4.86898983655913       -0.06964971355462
C            5.10625414451725       -1.82949705958874        2.74914347587829
C            4.77033101649905       -0.47600324152331        2.79369250648442
H            3.53911994052475        1.07757996217438        2.02132609142069
H            4.66524579259097       -3.72917250371839        1.87315603206080
H            5.87880084275086       -2.21296405638194        3.39761610704616
H            5.27335531322952        0.17769153117998        3.48949711287429
C            4.78703950076863        3.92168707524685       -0.97891778486569
C            5.08009265248218        2.55798249293262       -1.00178609614496
H            4.36505007217737        0.57951936037631       -0.69685040377935
H            3.27120654178617        5.39435289315639       -0.65730932758956
H            5.54933522697291        4.63970588577219       -1.23889086441423
H            6.06371123238736        2.22659232398693       -1.29704703225683
