57
 energy: -107.645732587973 gnorm: 0.000713467884 xtb: 6.5.1 (b24c23e)
Si          -0.59142433304890       -1.57819174563054        0.46808851559271
O           -1.78564235337098       -1.51537361666058       -0.61238416896463
C           -3.16459568031227       -1.78212920528631       -0.53096804542501
C           -3.92449340048439       -0.48177574892572       -0.61737341213334
H           -3.38689524285775       -2.27889248378531        0.42179578492072
C           -3.39764076196341        0.58374516047333       -1.33568393388098
C           -5.14201844219930       -0.32954105779222        0.03229620845571
C           -4.07093659231257        1.79086473985289       -1.39052726137848
H           -2.44626568029731        0.46136240652169       -1.83185808178834
C           -5.81986431919271        0.87501815365120       -0.03249663190733
H           -5.54944656093300       -1.15343839685303        0.60042770000915
C           -5.28382156587989        1.93846358426063       -0.73955032645937
H           -3.64651778573763        2.61775439919120       -1.94196443239380
H           -6.76374737251541        0.98788505204479        0.48048622314352
H           -5.80953855621428        2.88126615169420       -0.77948909580625
C           -3.53789905382365       -2.72178913766605       -1.69213685584102
C           -2.85387528155208       -3.98841060214073       -1.54053238221008
H           -4.61985904728943       -2.87542964253418       -1.69680518449894
H           -3.23718985260712       -2.25292503243815       -2.63244536897300
C           -2.25292119711297       -5.00699119762158       -1.36018554192963
H           -1.73326246901257       -5.90803466738040       -1.22638052035188
Cl          -1.71292554539926       -2.21883023324335        2.17977434305170
Cl           0.82013312503853       -3.06299683219992        0.71235113061751
O            0.36947208580226       -0.85813796542473       -0.96573325292029
O           -0.15107907268704       -0.16656327055006        1.36525807818352
C            2.02438392155849        0.54788730813927       -0.14729732248436
C            0.99216600544707        1.49687935535769        0.15684465898980
C           -1.19968729700190        1.87278479311325        1.03938223822219
C            2.58328134538036       -1.45350295416752       -1.30432893483522
C            3.91960096630198       -1.24376637185625       -1.13184605651914
C            3.40447134370889        0.76660457417828        0.14499247657745
C            4.36853473274144       -0.14636188122231       -0.35415407618380
C            1.05102488141700        2.86011266249123       -0.27370481111977
C           -0.04923944705140        3.71660073512728       -0.00316174940758
C           -1.18675209358066        3.17896687524450        0.65905829306753
C            3.83256585327181        1.80848811211918        0.98618177034191
C            5.72532519648106        0.05793431955748       -0.06481480988240
C            2.11241029631584        3.36956131902778       -1.04258345640360
C           -0.01047197638817        5.05180204552076       -0.42068700827151
H           -2.04547760349992        3.79744499055533        0.85240362961822
Cl          -2.52292702913967        1.17313741088803        1.86254493218338
N            1.66455708539220       -0.60412600577067       -0.78275831523644
N           -0.13087239667686        1.06858313030038        0.81114985512452
Cl           1.97537161031259       -2.73118741000381       -2.24959296710947
H            4.62642927958436       -1.92696852403870       -1.56937809214002
C            1.06862425591294        5.53705272579121       -1.12477869995754
C            2.12030183469116        4.68343853824883       -1.45153028370340
H            2.92978822164429        2.72403950050691       -1.31927249077434
H           -0.84679777825883        5.69201099797481       -0.18556590084811
H            1.09238970428660        6.56831112574758       -1.44115444439492
H            2.94838919990917        5.05222914165705       -2.03707719999512
C            6.11994073125632        1.10821345898630        0.72938587091876
C            5.16714258135792        1.97390154395532        1.26951272698359
H            3.10144537730706        2.47576602363121        1.41479892755918
H            6.45092829316613       -0.63175309886709       -0.46755353288203
H            7.16539378849910        1.25663864888183        0.95199369365144
H            5.48037007161741        2.77526809736572        1.92072959179866
