57
 energy: -107.640495378987 gnorm: 0.000655369721 xtb: 6.5.1 (b24c23e)
Si          -1.07007791671197       -0.55603768594476       -0.15647540238941
O           -2.64713749011585       -0.83681245309858        0.04113720041636
C           -3.80176937009464       -0.54047713926070       -0.70349719070709
C           -4.88243554124641       -0.02555489108677        0.21134010564865
H           -3.56752413620290        0.21367303243200       -1.46373394141252
C           -4.91517535003494       -0.39918125094748        1.54754153620531
C           -5.87303966074966        0.81006551878577       -0.28839896720011
C           -5.92282307803153        0.06301795450409        2.37547794618009
H           -4.13820170004337       -1.04190820596816        1.93185665070498
C           -6.88452364767076        1.26379944794574        0.53877283366227
H           -5.84634053451085        1.10820850487082       -1.32715108990210
C           -6.91059989751868        0.89225993975418        1.87275643770926
H           -5.93721004630505       -0.22713657779600        3.41595066229143
H           -7.65115649300556        1.91412117121911        0.14265380779222
H           -7.69813681347153        1.25147193386515        2.51893208164264
C           -4.26370037804765       -1.83569028701632       -1.40365371223733
C           -3.23136545837245       -2.31092965049868       -2.29891544733428
H           -5.18420890445523       -1.63618575442783       -1.95784198305698
H           -4.46077849099845       -2.59295031807616       -0.63951414949316
C           -2.32760044181782       -2.66063633174322       -3.00095612548692
H           -1.55285021917961       -2.97821408548320       -3.63260829616384
Cl          -1.28590694401257        0.78936920965758       -1.85192880935987
Cl          -0.75666323920138       -2.05519442170832        1.35144620218580
O           -0.33349943195677        0.59786928290375        0.88860649626415
O            0.38221210418261       -1.02529274169543       -1.01386028647809
C            1.82262290076883        1.01526476759924        0.07776400919438
C            2.18142817374103       -0.36262267739581        0.30627388360710
C            1.80361866911401       -2.66810525470212       -0.19085454297996
C            0.17819545709029        2.74798810664386        0.19313537789461
C            1.05405080530278        3.68953053959294       -0.25170201754229
C            2.76529048259576        1.95535349547817       -0.44196329519491
C            2.38011856781413        3.31379177493308       -0.59492344717294
C            3.30654681917870       -0.72562104449001        1.10692708293535
C            3.67911498971430       -2.09249959081383        1.20082698654655
C            2.90596509011522       -3.05876313045786        0.50531587973687
C            4.03869697847227        1.56907323039436       -0.89882696911093
C            3.29703045536835        4.24145091570042       -1.10506447644710
C            4.00916716316793        0.21470464892292        1.88246277648996
C            4.77868994046145       -2.45687005764464        1.98906715775839
H            3.16726674599904       -4.10155906330821        0.55279163764364
Cl           0.81571750937194       -3.75991080858105       -1.03755203642750
N            0.56399182773324        1.46076580816166        0.36520595437982
N            1.46376774085060       -1.36080966302966       -0.28429014931614
Cl          -1.42951168845979        3.11293595376028        0.61879276261232
H            0.72979959200314        4.70877628522452       -0.36862859735702
C            5.47485179921390       -1.50888508708063        2.70172899328663
C            5.07420328984865       -0.17282760793271        2.65970533288322
H            3.70328716108272        1.24867205342727        1.86842695218881
H            5.06139519142225       -3.49724915556402        2.03475611423759
H            6.31866485373797       -1.79742311890070        3.30927403939275
H            5.60030117640496        0.56227434425507        3.24906783117051
C            4.55394109972333        3.84261602668921       -1.49693149777994
C            4.91384636493523        2.49783842661460       -1.41006850861377
H            4.32921866191787        0.53194561548748       -0.85075872437320
H            2.99421236561524        5.27332278010067       -1.19430124779407
H            5.25448593944013        4.56263520120498       -1.89069040322686
H            5.88592895582821        2.18044208452352       -1.75470841810072
