57
 energy: -107.648406487517 gnorm: 0.000564643329 xtb: 6.5.1 (b24c23e)
Si          -1.57576493935036       -1.23946566480305        1.00599798395193
O           -2.80174578572515       -0.63306496503546        0.14450511401851
C           -2.89290272609574       -0.22181542979668       -1.20857525980829
C           -2.33709939164984        1.17299328241565       -1.34178361512755
H           -2.31314360606639       -0.90972157415657       -1.82990453700659
C           -2.87191179051473        2.20799711319982       -0.58441444036296
C           -1.26082556211579        1.43446583784718       -2.17866018722809
C           -2.34953133294195        3.48553430156299       -0.67653513369828
H           -3.69327226491103        2.00636514642884        0.08640166306370
C           -0.73126421538401        2.71036545591552       -2.26295007356035
H           -0.83528047026224        0.63193983566274       -2.76297459078753
C           -1.27856571826187        3.73959067090561       -1.51652806824021
H           -2.77885263845792        4.28357785743115       -0.08914913242128
H            0.11161567688065        2.90209826369843       -2.91117199507103
H           -0.86771624068549        4.73570678893261       -1.58864810698789
C           -4.37180254842919       -0.29662509672559       -1.61957294483668
C           -4.80444692391006       -1.67619238534990       -1.69150891231850
H           -4.49495726420417        0.18378264490494       -2.59416160821306
H           -4.97666894288291        0.23154638753736       -0.87979196509403
C           -5.11817106106457       -2.82946058256426       -1.73930360643260
H           -5.41434794497529       -3.83484449470693       -1.77538046671027
Cl          -2.75763371183313       -1.28575435546759        2.73240347574687
Cl          -0.92131063338698       -3.18710026117222        1.16597362720704
O           -0.47226818156239       -1.02256909841157       -0.57705539528651
O           -0.39952165006534       -0.24784217114252        1.79115094205043
C            1.70434987986825       -0.51870255321227        0.02675601646599
C            1.23855157903757        0.77474075773593        0.43660818814863
C           -0.36599777920421        2.06263160186035        1.65501977840101
C            1.18533202515790       -2.54649636608634       -1.10184615435752
C            2.48545428520231       -2.95536231340536       -1.08296565992860
C            3.06749037361917       -0.93023498523593        0.14255008205607
C            3.46265061374601       -2.17156302589220       -0.41873325462843
C            1.85173684027520        1.98302583356355       -0.02032823290346
C            1.35893899281753        3.22969740001325        0.44418122457729
C            0.22984529029493        3.23468668673900        1.30747475774837
C            4.01347372878312       -0.18927969854626        0.87170097476856
C            4.79579320546515       -2.59005898373381       -0.30001357232197
C            2.86909226913812        1.99145675948165       -0.99040355872899
C            1.95443792786788        4.41826523500560        0.00884147635975
H           -0.18005739738410        4.16500904952627        1.65857268622932
Cl          -1.75221850962587        1.99849846452578        2.64672233682230
N            0.80451927377159       -1.38088213346979       -0.52440208972016
N            0.14006289136489        0.87048025072802        1.24800939868656
Cl          -0.03241954171289       -3.41730913031492       -1.91894305733330
H            2.76046454515924       -3.88099674574787       -1.55791797336372
C            2.98439239672615        4.39379385815588       -0.90476131168003
C            3.42357081496076        3.17567937128327       -1.41912914683332
H            3.21564532487312        1.06002409018200       -1.40819888100117
H            1.58270222178910        5.35532042603244        0.39393365038641
H            3.43699663374260        5.31464329437935       -1.23887031483358
H            4.20249387931399        3.15864052573742       -2.16597633458565
C            5.70929714788604       -1.82608384767234        0.38615034661107
C            5.30989495003160       -0.63097454551345        0.98672430060905
H            3.71261366420903        0.72994193601398        1.34891312708653
H            5.08644123586101       -3.52783892709613       -0.74789589510568
H            6.73276246088239       -2.15585412084195        0.47741835268870
H            6.02323464393644       -0.05240867130518        1.55313897283255
