57
 energy: -107.649467630736 gnorm: 0.000593847089 xtb: 6.5.1 (b24c23e)
Si          -0.64401813056814       -2.11106605561633        0.36039519036134
O           -1.90591214273453       -1.22643790072645        0.88450984063490
C           -3.22285562137612       -1.11840355380786        0.37859336489675
C           -3.22101305828853       -0.13129727361895       -0.76194430894564
H           -3.54800436214451       -2.10041451451078        0.01842567390297
C           -2.70831578456074        1.14458220572635       -0.56517643787665
C           -3.65962669765916       -0.49815680841325       -2.02581188614421
C           -2.62786629001041        2.04080946941390       -1.61491833407092
H           -2.35951137661209        1.43409511824231        0.41471374565267
C           -3.58774924158152        0.40195124635752       -3.07498478883672
H           -4.03971612347348       -1.49501986282235       -2.18975573815612
C           -3.06918838258966        1.66989751496597       -2.87358202713988
H           -2.21689910929497        3.02666757929202       -1.44756042075408
H           -3.92740823613589        0.10722614485116       -4.05689498581221
H           -3.00523168166746        2.36700021312907       -3.69609649877854
C           -4.14177582138861       -0.67199898112659        1.52694085342037
C           -4.11868791282960       -1.64575798158551        2.59819752646448
H           -3.80703279331516        0.29627572777832        1.90860772387220
H           -5.15857081867445       -0.56691991587555        1.13957867320918
C           -4.05525011256755       -2.46606332386082        3.46656399957206
H           -4.01119760664453       -3.18371511913652        4.23014003846752
Cl           0.12107888951713       -3.73589334880701        1.33468328232412
Cl          -1.64614840979599       -3.22244176595929       -1.15607382240120
O            0.20337920897147       -1.30693392992606       -0.91517240802205
O            0.42661713306825       -1.14713734215146        1.54783435276754
C            1.83774932608360        0.25819445891033       -0.25702370575058
C            0.87079813298043        0.91554777277173        0.57197087717635
C           -0.53809295746477        0.73876073551541        2.48171161236058
C            2.40040125993269       -1.69644927303983       -1.52070072230961
C            3.68138247862395       -1.27621557623524       -1.70132047749394
C            3.17860393279696        0.73640874821987       -0.40521416133814
C            4.10427483461915       -0.03060227080669       -1.16197112016698
C            0.55262657542628        2.30376919469462        0.46422807323036
C           -0.27656399808798        2.90036230833040        1.44833554589218
C           -0.78019905447533        2.08213983152606        2.49290527660950
C            3.65373442482137        1.88746054552603        0.24829255793084
C            5.42004736484605        0.42140010632555       -1.31781898773229
C            0.95529832612051        3.07699258728287       -0.63783232634315
C           -0.60223429897579        4.26015146233058        1.34351732210280
H           -1.38595229003154        2.50770602693988        3.27432323720381
Cl          -1.15576823234984       -0.31564938483322        3.67096905761443
N            1.50038998310771       -0.92458687093428       -0.85797510980478
N            0.24307908088119        0.17483804324964        1.53027455407477
Cl           1.82107947080429       -3.18312435170519       -2.12931338027977
H            4.37740937058516       -1.89946496728184       -2.23483518119520
C           -0.15987950512031        5.00384525998624        0.27494608462247
C            0.60459037413372        4.40337587753218       -0.72664752779338
H            1.53713951581978        2.61730065192771       -1.42100190693319
H           -1.21823770615958        4.70722789342809        2.10864783006419
H           -0.41969179584729        6.04847587942167        0.19752658122573
H            0.91629935574733        4.98284816724472       -1.58195458286270
C            5.84066301792376        1.58262256012785       -0.71074264309420
C            4.95614649058090        2.30178368231423        0.09119733069476
H            2.99280064131725        2.45224683755476        0.88512037922798
H            6.10131687470923       -0.16523668084604       -1.91468403399393
H            6.85663660212750        1.92410888638639       -0.83438466800579
H            5.29611488687387        3.18974831634392        0.60165760647492
