63
 energy: -105.911049482588 gnorm: 0.000276425182 xtb: 6.5.1 (b24c23e)
Si          -1.26187741537602       -1.07620283558808        0.47589008326364
O           -1.99953217219522        0.32578261181972        0.09367864275116
C           -3.01431027825809        0.61084291851129       -0.83554037659078
C           -4.39101077483779        0.33412540213130       -0.28341461016006
H           -2.86240854097529       -0.00026385515623       -1.73312607613778
C           -4.61535297856214        0.20119580272935        1.07804233954886
C           -5.46427908863922        0.22640808973073       -1.15977129609473
C           -5.89133755088091       -0.03611898268349        1.55890705333558
H           -3.78659784444372        0.25965758682788        1.76709930385996
C           -6.73950374940414       -0.00320436336694       -0.67918675970246
H           -5.29353314442502        0.30946986796488       -2.22364693700571
C           -6.95681653310455       -0.13332206897449        0.68277110108978
H           -6.04896241918616       -0.14774212214268        2.62144386463711
H           -7.56583299118962       -0.08958027590435       -1.36945419279002
H           -7.95255673919583       -0.31873417127923        1.05761343960095
C           -2.87648790689230        2.09941484917832       -1.21628499376718
C           -1.58589084297641        2.34819159158245       -1.82187230524032
H           -3.67238647584139        2.36176810043197       -1.91681772802162
H           -2.98311811466013        2.71099809910676       -0.31623417592556
C           -0.50279351634338        2.49979349649507       -2.30745455392930
H            0.43650109535519        2.65627178669246       -2.74730909285903
Cl          -1.66654685663809       -2.22031071831829        2.13756677130768
Cl          -2.40009592657880       -2.33840561153579       -0.85663267250150
O            0.09370258316620       -1.39875133139187       -0.51985047961620
O           -0.18180699774421       -0.15224002903791        1.61323489983947
C            2.13677522260833       -0.56479561078544        0.29539117564027
C            1.56738940663902        0.75018775861205        0.37236463921037
C           -0.04507536771650        2.15774012350436        1.43480716774020
C            1.76779426491561       -2.91794117206244       -0.04338128499788
C            3.07278971066392       -3.18949497946166        0.23795726842410
C            3.50171016576251       -0.82076528574975        0.63791429111653
C            3.98340596589148       -2.15443701764061        0.58044133096106
C            2.15782134750803        1.88637809732038       -0.25898329077610
C            1.64208463933313        3.17501982858324        0.02716652339026
C            0.55669002112695        3.27501617920861        0.93286966927578
C            4.36589561185004        0.17590872255577        1.12569265076344
C            5.31765785093450       -2.42535793587686        0.90662412371487
C            3.17076495015159        1.76305198370702       -1.22592634904217
C            2.20417437628911        4.29662966685438       -0.59833079704527
H            0.17975646055596        4.24867255117206        1.19899415504813
C           -1.19865009601125        2.19918840823992        2.37314816183417
N            1.34814980129058       -1.62644766978126       -0.04340209474495
N            0.44115721787927        0.93623337394644        1.11420295941510
C            0.76276111073144       -3.96163449126657       -0.37503502722402
H            3.41736751977105       -4.21023373578737        0.22795168040125
C            6.15683643164099       -1.41888644985695        1.32654394477981
C            5.66742416540472       -0.12041892531963        1.45662505443659
H            4.00474983758267        1.18437766070106        1.24694484468858
H            5.67285134545718       -3.44223811522613        0.83298015036180
H            7.18392689543948       -1.63567222427384        1.57710833307774
H            6.31304374070361        0.66115543045825        1.82735426941944
C            3.69160771249322        2.87841790803904       -1.83826897873029
C            3.22049135511401        4.15144067262449       -1.51326337229912
H            1.81423331959680        5.27451515003400       -0.35924777348389
H            3.53391549370601        0.78213939267024       -1.49069338703203
H            4.46591839978346        2.76799433686727       -2.58227869621821
H            3.64459755675674        5.01905791925616       -1.99573570028053
H           -1.41300362926919        3.22145598404893        2.66900791212259
H           -2.07327193858840        1.76584215967189        1.89298187260487
H           -0.98256186217454        1.59422781241800        3.25275919835548
H            0.23028957368439       -3.70654759890096       -1.28994379533475
H            1.24289006634865       -4.92874228051520       -0.48472722046572
H            0.01449653597040       -4.02170446578932        0.41590314199293
