63
 energy: -105.908032070196 gnorm: 0.000689249050 xtb: 6.5.1 (b24c23e)
Si          -1.63980615493421       -1.44943314135817        0.30878520616439
O           -2.40120389959594       -0.04888988794640        0.61950217113844
C           -3.07434259677536        1.01821400062935       -0.01519770790283
C           -2.12227414390317        1.77719726053140       -0.90824190780374
H           -3.37112326389210        1.67128590443972        0.82047717213713
C           -1.54450065682079        1.16781446619329       -2.01507501632595
C           -1.78282719119056        3.08936383795225       -0.60455815056716
C           -0.62643634297880        1.85574160046255       -2.78818837029142
H           -1.80153971636588        0.15042495956335       -2.26390082756232
C           -0.88133904818667        3.78327212074704       -1.39180038615328
H           -2.23035420326554        3.57221359044912        0.25286765703680
C           -0.29297145540284        3.16369297178969       -2.48007901042156
H           -0.17506364935049        1.36882939694107       -3.64014105203402
H           -0.63241834334436        4.80597359419004       -1.15032735304898
H            0.42016229196050        3.70059096851384       -3.08761156085920
C           -4.35156444749912        0.59420908368697       -0.75752591667116
C           -5.25392258240848       -0.08125433015213        0.14995625594759
H           -4.82495558199732        1.49458073244252       -1.15907719306293
H           -4.10439568880451       -0.07851693600412       -1.57923914812511
C           -5.94714028277060       -0.64199139533900        0.94754807607910
H           -6.58336619853168       -1.14454450685010        1.61269926032251
Cl          -2.00546696718237       -3.08320668929899        1.49024964706555
Cl          -2.82951756376656       -2.17863469704303       -1.33224056515163
O           -0.36511009434483       -1.37970372743270       -0.83721065760507
O           -0.39489872799484       -1.02444137510219        1.61127076890715
C            1.73461445816671       -0.70300772054634       -0.01766057090619
C            1.12190896458959        0.43138701376358        0.61000510086356
C           -0.36864925750486        1.17808327364681        2.32376184012501
C            1.40350797084809       -2.84360059187695       -1.06956120483370
C            2.74452672339361       -3.08040642389090       -1.06958160672830
C            3.14643546025488       -0.93209012361806        0.02149494530661
C            3.65981433176935       -2.12926888698746       -0.54318666676665
C            1.54600012258394        1.77414255528808        0.37929064568960
C            1.03246970939691        2.80628854823412        1.20240586444604
C            0.09911680819803        2.45589385151645        2.20990819393520
C            4.04456721743722       -0.07380950808350        0.68058650493039
C            5.03850150637901       -2.37142729009139       -0.52384204728180
C            2.38991263563538        2.11804082788551       -0.69001169175109
C            1.45152638964046        4.12705966535311        0.99065865711988
H           -0.27018596534859        3.21839140510610        2.87610117584338
C           -1.36207915922493        0.75143423798838        3.34627826442113
N            0.94534595554127       -1.65733694547948       -0.59293285799524
N            0.11921787456906        0.21481819020437        1.50747052877314
C            0.39396841646503       -3.80808516015725       -1.58076445396826
H            3.12035172758690       -4.01461396353908       -1.45280517264033
C            5.90033880250107       -1.48262614440830        0.07681304395128
C            5.39305416261936       -0.34390740321721        0.69979765251580
H            3.67457420612790        0.80641490339881        1.18066355228918
H            5.41194092123371       -3.27550819131898       -0.98085747074437
H            6.96203038317352       -1.67603667534239        0.08705319470201
H            6.06297730923765        0.33200046969085        1.20906531082593
C            2.77006839679662        3.42379769781111       -0.88674763332949
C            2.31807547448069        4.43012776001216       -0.03254168296523
H            1.07374825016411        4.90242525802485        1.64039882799834
H            2.73769330466073        1.34586681189545       -1.35832656795589
H            3.42048066682197        3.67357910363083       -1.71113783541080
H            2.63680810755369        5.44960397737101       -0.18951657034697
H           -2.25775634670435        0.37083055639590        2.85875002060863
H           -0.95214345881234       -0.06701030512658        3.93709822812130
H           -1.62084808621507        1.58193142019014        3.99572073598074
H           -0.26803174108656       -3.32935785203810       -2.30060894506941
H            0.88299152330101       -4.66057505311227       -2.04105890451301
H           -0.23370725688563       -4.15605109057988       -0.75968379645100
