63
 energy: -105.905682555737 gnorm: 0.000740297685 xtb: 6.5.1 (b24c23e)
Si          -1.25222857217458       -0.08224080548072       -1.33478127501152
O           -2.26217954146704       -1.00099160993504       -0.46414809049366
C           -2.76487741366054       -0.88184337024035        0.84556508422501
C           -4.13203934761521       -0.24593953192817        0.83298051047273
H           -2.08117584210732       -0.27247688152664        1.44357306994811
C           -4.95580369042379       -0.36249249057556       -0.27744327633691
C           -4.58187080204631        0.45088158317116        1.94725482411447
C           -6.21368923638203        0.21439269241880       -0.27362683134336
H           -4.59723534459945       -0.89335563419311       -1.14589058549132
C           -5.84153970366239        1.02190919671840        1.95156529136284
H           -3.94046985891609        0.54635385068449        2.81299775869317
C           -6.65987024513741        0.90467674596613        0.84028552163036
H           -6.84655715813296        0.12362115878617       -1.14381120295967
H           -6.18329194146825        1.56340559668571        2.82175400663794
H           -7.64192824041451        1.35425492554769        0.84301825313163
C           -2.82761248572793       -2.29898025313567        1.45053377213095
C           -1.49727088687913       -2.76447323842920        1.77575899982426
H           -3.44210327156621       -2.27958809363996        2.35399737781404
H           -3.29056661182101       -2.96595294253172        0.71948940761562
C           -0.37042404692358       -3.07706773782835        2.03106334073564
H            0.60328364132857       -3.38247987919334        2.27327830835947
Cl          -1.55382115361904        1.81430524012800       -2.10956522484335
Cl          -1.93959400379190       -1.03874902382812       -3.11188298253844
O           -0.57078824932655        0.63813681215410        0.24628464825662
O            0.32248597333862       -0.63518556104886       -1.70233880689195
C            1.70493422938682        1.03949436921675       -0.00499371803409
C            1.92696734134217       -0.37829600073116       -0.00242571715503
C            1.26392350052104       -2.54525262928399       -0.80795704043502
C            0.17962300428748        2.82144936435127        0.46377566315358
C            1.19425824500388        3.73365072677154        0.41950456145545
C            2.77003535663083        1.97771095480063       -0.16375577450065
C            2.50877074314590        3.35375584716319        0.05012447850333
C            2.90494039420183       -0.98620079174490        0.84647224794608
C            3.08021217201134       -2.39339150792557        0.79165282782787
C            2.22994304240231       -3.14858238710690       -0.06002611439530
C            4.04670777403562        1.59328108873596       -0.60867726013309
C            3.54505095214372        4.28471718533847       -0.10777732044955
C            3.63785180862223       -0.26311815933927        1.80436696887808
C            4.03769243759734       -3.00608921982272        1.60915180363070
H            2.32919678542067       -4.22140655712793       -0.08763991162734
C            0.31011022723949       -3.28724038419368       -1.67131832319365
N            0.44470948598690        1.51829316453969        0.19859636050102
N            1.16305686282816       -1.19264216923326       -0.78700688879504
C           -1.21298071674793        3.17881399946704        0.85057883632536
H            0.98610027948390        4.76720116836330        0.64142219879131
C            4.79634660853121        3.87681843476608       -0.50450071379916
C            5.03996107354259        2.52882126238959       -0.77186758592300
H            4.24176293890219        0.55516709750709       -0.82828491656594
H            3.33862949441970        5.32803378308408        0.07788460878043
H            5.58917834873443        4.59902704384732       -0.62687192045391
H            6.01466429212352        2.21946002545431       -1.11698962359523
C            4.56020446117574       -0.89227204454527        2.60794620018660
C            4.78135043103339       -2.26379193521451        2.49841439808020
H            4.17468424226741       -4.07486579740408        1.53587502083140
H            3.47411561441381        0.79682298476311        1.91453554187638
H            5.11281380372963       -0.31679136623500        3.33497291232025
H            5.51719469398569       -2.74342914251370        3.12552814957262
H            0.54550125637878       -4.34654073383762       -1.67442852612488
H           -0.70465276614556       -3.14496932615525       -1.30050655075419
H            0.32729885480810       -2.90007604290368       -2.68900470553403
H           -1.61255712293237        2.43887186728333        1.54162210000160
H           -1.23110797993753        4.16150113035871        1.31149267281692
H           -1.85426313737667        3.18386194837513       -0.02960983905278
