63
 energy: -105.911164839205 gnorm: 0.000756072602 xtb: 6.5.1 (b24c23e)
Si           1.18220996025317       -1.13232805024435       -0.17451542406910
O            1.92634172690356        0.31704317207192       -0.10261670032230
C            2.94714531426318        0.77450979310063        0.74964578981501
C            4.31280572059916        0.30937088005422        0.31067945459773
H            2.75698660500573        0.40780173882851        1.76520109949833
C            4.55996126449722       -0.07804202851021       -0.99720609389124
C            5.35106766813945        0.28199409156882        1.23380100516813
C            5.82425529980505       -0.49247715696866       -1.37816489068060
H            3.75510570233533       -0.08039283988262       -1.71676607399815
C            6.61548975690333       -0.12467994401461        0.85165062800597
H            5.15975927006032        0.56751233917500        2.25830074965323
C            6.85542487136725       -0.51283875506685       -0.45626593916453
H            6.00002587352322       -0.80360203532580       -2.39729124003686
H            7.41439255690648       -0.14711885476299        1.57796346003319
H            7.84176378834901       -0.83765033553233       -0.75279360567965
C            2.87873088767998        2.31514391344671        0.75677129479956
C            1.62220424675943        2.76165953550009        1.31875621065677
H            3.70922282933278        2.70336246315882        1.35098275102592
H            2.97579203645111        2.68268157607688       -0.26819853338623
C            0.56940329837825        3.07591584445345        1.79327589794896
H           -0.34582473067199        3.37445976673502        2.20972848325201
Cl           1.54662128002357       -2.58294974656721       -1.58682493728542
Cl           2.35865563187717       -2.10533290786409        1.35240092796956
O           -0.13886788150407       -1.24007693030856        0.90771582045855
O            0.06087931735219       -0.45393630175975       -1.44004374548922
C           -2.20451988680620       -0.52314438852075        0.03715047100277
C           -1.61542105445907        0.72966839389652       -0.33855993815286
C           -0.04512772579116        1.83968041653744       -1.75819915242450
C           -1.85380626689776       -2.78188755988652        0.79232258785441
C           -3.17742104718605       -3.06583008000307        0.64157755767613
C           -3.59384642553152       -0.80008355837904       -0.16615823632585
C           -4.09208968521811       -2.08515332607456        0.17283930206751
C           -2.14995301698915        1.99016912361048        0.06776386525852
C           -1.64226139208366        3.17405483897153       -0.52277015638938
C           -0.60957269643529        3.05177359576145       -1.48540382850162
C           -4.47422560256083        0.11012466753657       -0.77809007922038
C           -5.45013769679030       -2.37386113773879       -0.00766692669732
C           -3.09735121580687        2.10237805826646        1.10021057136522
C           -2.15701049359537        4.41674531446750       -0.12715782314853
H           -0.23823792264917        3.93584178546318       -1.97671042048602
C            1.06342471130610        1.65037359988654       -2.73203040097555
N           -1.41651319607321       -1.52262346011729        0.53249426424554
N           -0.52817126299120        0.72691641701448       -1.15839988180960
C           -0.84515154476370       -3.77458538298838        1.24713854695288
H           -3.53627579998153       -4.05863084343678        0.85678541343648
C           -6.30116365861680       -1.44017548426135       -0.55282972800098
C           -5.80069360888804       -0.20463427031462       -0.95934186878630
H           -4.10750332593148        1.06655234683826       -1.11361559192627
H           -5.81496733092216       -3.34838802581670        0.28016966724513
H           -7.34696419381995       -1.66974367116793       -0.68812238183924
H           -6.45781306419701        0.51230106776902       -1.42762366876112
C           -3.56940903026494        3.33517022986115        1.48440461211731
C           -3.11363286620766        4.49615742801285        0.85745787635694
H           -1.77619796024325        5.31033263353203       -0.59829851517900
H           -3.44824822025548        1.21063159027222        1.59602783172707
H           -4.29290739195588        3.40644665244661        2.28240718673942
H           -3.50086907262063        5.45678703017075        1.16196064333781
H            1.28226899951114        2.58078352185704       -3.24675320148352
H            1.95114126388601        1.30346143382992       -2.20736685918970
H            0.79601414206545        0.87923183826194       -3.45338700635222
H           -0.24689530152526       -3.37153555408983        2.06258357855415
H           -1.33184326219057       -4.69133698976689        1.56433082627439
H           -0.15433619110717       -3.99968047906370        0.43385347455930
