63
 energy: -105.908791922210 gnorm: 0.000826011973 xtb: 6.5.1 (b24c23e)
Si           1.30995637496557       -0.82559093254031       -0.28985869565056
O            1.92733135988135        0.68207370725300       -0.33478319268127
C            2.97205960387459        1.32964591623350        0.36058268411219
C            4.29443093463948        0.62306519788841        0.15287574206908
H            3.03375622356896        2.31841910122941       -0.12663204331366
C            4.57716788243894        0.13228175064657       -1.11705213803550
C            5.23806795996986        0.45895483044297        1.15681286376716
C            5.76244587553637       -0.52857084159260       -1.37554296416118
H            3.84792008467584        0.25121410435603       -1.90509458127373
C            6.42962308513396       -0.19525365365999        0.89527717151518
H            5.05157409585375        0.82131664378521        2.15488295804157
C            6.69532662473254       -0.69415089562469       -0.36692817370530
H            5.95394815285747       -0.91628046930848       -2.36500842888740
H            7.15026941872684       -0.32360075078785        1.68959704463622
H            7.62177235500305       -1.21330268978842       -0.56301730071434
C            2.58557362045757        1.54996369136254        1.83063217518038
C            1.28256436266073        2.17219081324648        1.92377252497722
H            3.32453733003372        2.20025314717011        2.30410353942765
H            2.56049578450101        0.58559392982380        2.34180463373254
C            0.20178729828977        2.68340290907934        1.97463183695420
H           -0.74120057080094        3.13640248403571        2.04833419120808
Cl           1.73022940139102       -2.29296715703835       -1.67482622966788
Cl           2.63515355923446       -1.68134371213657        1.19220005773073
O            0.05682724874739       -1.01216486308873        0.86428578760648
O            0.06633243046392       -0.30641509887495       -1.51347423963556
C           -2.11068002065661       -0.58118300870807        0.05419238130254
C           -1.68921282726735        0.71864427330220       -0.38175247582423
C           -0.28877266869978        1.95759787291174       -1.87123509863818
C           -1.47136239618568       -2.74317870831151        0.89283746117144
C           -2.75574750139324       -3.18769957574387        0.80198985895155
C           -3.46095720646268       -1.03084931574625       -0.09400620027632
C           -3.79331593300742       -2.34752763484419        0.31773748745834
C           -2.35837112789028        1.91943348502613        0.00418845660561
C           -1.99275431870146        3.13872692292575       -0.61947549488198
C           -0.97094581490529        3.10855463043080       -1.60121968945753
C           -4.45882161320922       -0.26181623434352       -0.71951535550291
C           -5.11112853118176       -2.80360220236525        0.19243225819967
C           -3.29830984439587        1.95143556056766        1.04936501256433
C           -2.63200324959243        4.32718986076893       -0.23850775956690
H           -0.70911570155880        4.01687116846786       -2.11849802035965
C            0.79878434312788        1.87024663648370       -2.88296478795645
N           -1.19294044687458       -1.45593768121614        0.56106433358229
N           -0.63186690478126        0.81393956492729       -1.23498183946705
C           -0.34139984953252       -3.58984536918565        1.35725334302248
H           -2.98756705091527       -4.20345146822621        1.07627792156054
C           -6.08103145040039       -2.00446578946866       -0.36767019926670
C           -5.74223535643121       -0.73963266337870       -0.84515131187988
H           -4.21705679786412        0.71355095311388       -1.10961756513505
H           -5.34918700073631       -3.79950637870484        0.53469109353005
H           -7.09505954528897       -2.36214595044838       -0.45991574127565
H           -6.49232503894015       -0.12945941090860       -1.32495622562891
C           -3.89660657226109        3.13397651628784        1.41581169555194
C           -3.57777206831999        4.32409412778047        0.75987260044076
H           -2.35745521661307        5.24627755764498       -0.73415787386655
H           -3.54163733108827        1.03905165125743        1.57103040612227
H           -4.61246554383139        3.14353564564510        2.22363764024913
H           -4.06178211053011        5.24377776764996        1.05184366177507
H            1.74544571701663        1.67075921509435       -2.38572455468503
H            0.60898738223984        1.03751320919098       -3.55871610316966
H            0.87106105053343        2.79640226632224       -3.44458782797163
H            0.22667942079614       -3.08270142264471        2.13540173360764
H           -0.70890432498725       -4.54108434211117        1.72870933844280
H            0.34871995395375       -3.77155989155267        0.53263821743815
