63
 energy: -105.906285102343 gnorm: 0.000587510192 xtb: 6.5.1 (b24c23e)
Si          -1.38514048641289        0.02689483423758        1.42794357280578
O           -2.45909468283998        0.87803846339986        0.55509743356943
C           -2.71676878650284        0.91367994773240       -0.82732587606852
C           -3.31043451985500       -0.37557205061470       -1.32957083562351
H           -1.77886381912227        1.11208519290479       -1.36251205370782
C           -4.10145927446573       -1.15925472910330       -0.50210542036929
C           -3.08805079877115       -0.77795487760583       -2.64062227014072
C           -4.64963682286105       -2.33907501464957       -0.97388874307344
H           -4.27328126113413       -0.84581683736667        0.51615184115446
C           -3.64598021161524       -1.95220017132100       -3.11509232404236
H           -2.47068614599309       -0.17019481522944       -3.28794273604797
C           -4.42497537553895       -2.73699831859053       -2.28072648510769
H           -5.25583690177424       -2.94703288606019       -0.31934198029930
H           -3.46671264483577       -2.25807305416348       -4.13573607266499
H           -4.85449779149326       -3.65639878337741       -2.64987925526129
C           -3.69905896707667        2.07652126053481       -1.07273320656971
C           -3.05426411216438        3.35137350947798       -0.84880978924593
H           -4.06904893825561        2.02516351964319       -2.09997315330660
H           -4.53872140923569        1.96533033091782       -0.38283585367125
C           -2.47168701222098        4.37993579716908       -0.66155780168095
H           -1.99521178306357        5.29841715533044       -0.49072256598096
Cl          -1.43203775757074       -1.90493022858717        2.18114315036237
Cl          -2.23076246616705        0.84218526751123        3.19788286188976
O           -0.63406156450398       -0.58741093725286       -0.16875914407699
O            0.12598458136011        0.73088431895260        1.81868408954317
C            1.67435697829753       -0.69805821979627        0.06588275929481
C            1.70478451565421        0.73789443250121        0.08233187248461
C            0.76461123781072        2.77873375857218        0.94273181550972
C            0.39252233157813       -2.66013500714513       -0.40661113466069
C            1.51953665262774       -3.43041127093474       -0.37269821999924
C            2.85579100767702       -1.48616929995020        0.20653874792511
C            2.77581371865233       -2.88381994674534       -0.01198620209944
C            2.56617036184665        1.48602702471154       -0.77889040880189
C            2.52685501001504        2.90357283530444       -0.72165415108480
C            1.59881358167993        3.51971383803462        0.16007891896350
C            4.07596631276544       -0.93782144989067        0.63897626358774
C            3.92676424951732       -3.67116352555420        0.13336968432356
C            3.38512449453956        0.88223371541376       -1.74981679840014
C            3.36695173754635        3.65425989220732       -1.55221343506766
H            1.54280292936418        4.59500143535229        0.19479492436311
C           -0.23713853905922        3.37069729286580        1.86622035520623
N            0.48563550867948       -1.33457475496096       -0.13616483211506
N            0.85621831598316        1.42562312926097        0.90160726327253
C           -0.94016324491203       -3.19793250331028       -0.78955684735812
H            1.44648156890751       -4.48158175892445       -0.59750672777525
C            5.11712613456191       -3.10343433806104        0.52038925071378
C            5.18478837063377       -1.73523504245496        0.78883041433409
H            4.13549757568590        0.11666227823619        0.85911474365565
H            3.85716655201057       -4.73208101150634       -0.05423266870600
H            5.99876947423731       -3.71562540167188        0.63385552739131
H            6.11420927492107       -1.30120496463126        1.12453413362676
C            4.18982230822129        1.64444573038884       -2.56428799816091
C            4.20129049579032        3.03354272218957       -2.45416980642831
H            3.34306978046030        4.73111642498202       -1.47742375546598
H            3.38304100192101       -0.19037593255666       -1.85900002988872
H            4.81379976838369        1.15937361381126       -3.29943910202076
H            4.84761660737725        3.61949625329950       -3.08939621131448
H           -0.08742289364803        4.44255245104942        1.94938334251996
H           -1.24446603043391        3.17936530330788        1.49414926627572
H           -0.17207021716963        2.91136463493752        2.85100766216677
H           -1.42648762212507       -2.52698022782474       -1.49514674617619
H           -0.83225198056640       -4.18381808222285       -1.23068219259989
H           -1.58151937731719       -3.26679192217307        0.08753394012436
