63
 energy: -105.911694832567 gnorm: 0.000589590002 xtb: 6.5.1 (b24c23e)
Si          -0.75369847300315       -2.03689878105688        0.36438262934432
O           -2.00884451159155       -1.15160191127422        0.91187008902099
C           -3.30369922104712       -0.96736458237308        0.37557487364372
C           -3.22709875937590        0.04739672556476       -0.73749518787319
H           -3.66509358315900       -1.92346646592798       -0.01807569707244
C           -2.67950652305471        1.29975290106912       -0.48976504496545
C           -3.63191864399502       -0.27313217471509       -2.02512671941791
C           -2.53601225533538        2.21983065860962       -1.51161619709397
H           -2.35319558741542        1.55241451606132        0.50834194307119
C           -3.49507302306911        0.65044684491711       -3.04694557628055
H           -4.03702865153761       -1.25291110289880       -2.22764147675945
C           -2.94566288587238        1.89593860199348       -2.79393415208890
H           -2.10060954240492        3.18737987461844       -1.30512557678384
H           -3.80979052279271        0.39215812250713       -4.04737156496376
H           -2.83236601833724        2.61214241785828       -3.59465095611087
C           -4.23215937280656       -0.50482110479900        1.51051158322261
C           -4.26129109795852       -1.49090097199516        2.56995096181158
H           -5.23657604860555       -0.36412464371992        1.10362490558550
H           -3.87664625593451        0.44853167263428        1.91028163596920
C           -4.22794042439230       -2.32353493199549        3.42856692201577
H           -4.22229108237670       -3.05246419041422        4.18254161739443
Cl          -0.01040279846219       -3.71327356589149        1.29221856826769
Cl          -1.83166912869461       -3.15353042093572       -1.12960399441256
O            0.06952468383200       -1.30191610519112       -0.94661959906126
O            0.33975827005587       -1.14804598803004        1.51824204901968
C            1.77782577030445        0.19753387326733       -0.33539286589712
C            0.86503284363201        0.89258305827190        0.52571647604608
C           -0.45579303253492        0.78422814152604        2.51799612439538
C            2.21764920373270       -1.77074294430379       -1.64937470795007
C            3.50090535946637       -1.37020039899205       -1.86796959996708
C            3.12843755299951        0.63205865122325       -0.52149300646018
C            3.99328653550903       -0.15132120692198       -1.32970100579843
C            0.61948280562589        2.29554567774415        0.42637629656770
C           -0.13011356608293        2.93451892390166        1.44564515279814
C           -0.61303294181427        2.14138620009791        2.51862431645766
C            3.67127025723807        1.75007715758806        0.13700208753760
C            5.31521132603636        0.26153296669655       -1.53579991933945
C            1.01516380655693        3.04621338624764       -0.69373074748547
C           -0.38885129519948        4.30902384082907        1.35109520561969
H           -1.14588515847403        2.61469807330779        3.32745973071665
C           -0.97084722956469       -0.10628874019190        3.59159047113061
N            1.38800693279317       -0.96287984068990       -0.93959294194362
N            0.23451364239618        0.19606627990822        1.51308630770740
C            1.65228978247832       -3.04653772484773       -2.16157848822433
H            4.16434572800546       -1.99804847030385       -2.43929745669067
C            5.80059896027355        1.39586630369085       -0.92708477569417
C            4.97816640548494        2.12469111617369       -0.06978198693998
H            3.05887121412260        2.32173907827575        0.81517175006465
H            5.94983345906453       -0.33385223160191       -2.17484767804938
H            6.82012994691771        1.70877215774560       -1.09216704859403
H            5.37086672153366        2.98935712365454        0.44325987016250
C            0.73474791619559        4.38982405697727       -0.76842569998847
C            0.04637237078684        5.02920199702835        0.26347342142722
H           -0.94566017558530        4.78925460186423        2.14192569593636
H            1.53715676591452        2.55657690696319       -1.50088007611712
H            1.04252204797724        4.95321036259011       -1.63606802149193
H           -0.15923641629664        6.08683154299319        0.19630819753558
H           -1.72977551302602       -0.77686417139386        3.18964603510347
H           -0.16330779499234       -0.73185737266310        3.96905041196309
H           -1.39594902648723        0.47862271088092        4.40134822787784
H            0.73034739531718       -2.86523120686971       -2.71227096191378
H            2.37033880579408       -3.54939672295393       -2.80139810766401
H            1.39659605122980       -3.70032455232968       -1.32684071826208
