63
 energy: -105.901772936927 gnorm: 0.000542129242 xtb: 6.5.1 (b24c23e)
Si          -1.06438934311281       -0.53214730500620       -0.24485167769041
O           -2.63307573392319       -0.87756082518758       -0.07979494004596
C           -3.80588620559649       -0.51403451679696       -0.75954220033413
C           -4.83077369483008        0.00139815771625        0.21807119553790
H           -3.57926365980089        0.25913399734151       -1.50280483189442
C           -4.81258843569476       -0.40925481594686        1.54363615479758
C           -5.82312259084597        0.87270956945157       -0.21283630665961
C           -5.77199094466067        0.05040389415079        2.42861054315550
H           -4.03457963790946       -1.08015741193988        1.87375882116840
C           -6.78615962380560        1.32460734042781        0.67120760017882
H           -5.83582350912745        1.19870855544768       -1.24334823039302
C           -6.76203819116430        0.91487525322325        1.99410938051796
H           -5.74796678433903       -0.27013420270585        3.45993090588129
H           -7.55513726393147        2.00156685964774        0.32838213863982
H           -7.51247264556530        1.27139334182405        2.68454392333923
C           -4.34360924389030       -1.76703336680715       -1.48221359397721
C           -3.38597341656799       -2.22859539473847       -2.46279391366806
H           -5.29165519516948       -1.52354241723395       -1.96764269562671
H           -4.51115983808948       -2.55086653808600       -0.73875263299231
C           -2.54519784166770       -2.57622576348902       -3.24010311518118
H           -1.83615241421237       -2.89122582676060       -3.94561056188087
Cl          -1.33688477287479        0.95206787779258       -1.82815733732535
Cl          -0.73746843225832       -2.14747889067550        1.15559846573595
O           -0.34645679337003        0.54144443573642        0.87100501038070
O            0.32823752283630       -0.94918428972917       -1.17649148069812
C            1.83715371821750        0.94427498601074        0.11818886165645
C            2.15243922162066       -0.46170192038800        0.18696296713188
C            1.76427204652770       -2.68754262496879       -0.62548005788804
C            0.26889689125325        2.73488452193365        0.45642481763640
C            1.21778259950290        3.66433274250659        0.15240163826813
C            2.83567183204376        1.89144704700392       -0.27069402686094
C            2.52706695693493        3.27574269058188       -0.23302650765434
C            3.27499858196585       -0.92870611256725        0.93641536411719
C            3.65474748092297       -2.29123763675187        0.83285153633308
C            2.88425309980309       -3.14464009488827        0.00186283706595
C            4.09078363045807        1.50329062724423       -0.77472303138873
C            3.50073518207718        4.21386836208731       -0.59872147908809
C            3.96736521661747       -0.10592085928021        1.84342710009179
C            4.75622318764746       -2.75826099400117        1.56226873060049
H            3.16563939690532       -4.17971099793903       -0.09794204180392
C            0.88104763147767       -3.53490885933902       -1.46912128257864
N            0.60085422025108        1.42097365474906        0.44451632402220
N            1.43272201492449       -1.37989467309543       -0.51502456678433
C           -1.12869209253056        3.07798091137381        0.83109969583789
H            0.96319009981464        4.71091162884549        0.17443195234091
C            4.74035513205419        3.80588682743962       -1.03307041786309
C            5.02344720941789        2.44451225121261       -1.14002686990139
H            4.32400576142140        0.45549964653407       -0.87727204896895
H            3.25619658193050        5.26385728767466       -0.54089534833691
H            5.48642684724611        4.53433940449925       -1.31155443320352
H            5.98179851433913        2.12516089321902       -1.52031932884499
C            5.03392431301531       -0.59443387132093        2.55856789560096
C            5.44510280085639       -1.91909543861071        2.40585925626803
H            5.04674864743371       -3.79271650058964        1.45730137665942
H            3.65305390918496        0.91684389892972        1.98006951904791
H            5.55345215309070        0.05062565844459        3.25067725798020
H            6.29149375514212       -2.28641772788409        2.96592125667897
H           -0.08917471417401       -3.63695394392814       -0.98364022818687
H            0.71807165862365       -3.06019630798230       -2.43520792269868
H            1.31944954634496       -4.51798986567147       -1.60730067978407
H           -1.41487033661351        2.56368674136958        1.74683267756067
H           -1.23265450805984        4.15051470619521        0.96021810987798
H           -1.80229749811392        2.74269522369770        0.04216447609459
