63
 energy: -105.911721131571 gnorm: 0.000580135247 xtb: 6.5.1 (b24c23e)
Si          -1.33804217092223       -1.63404350279085        0.28791892879714
O           -2.31630608023600       -0.34614332248251        0.49881772108594
C           -3.33964282703817        0.16604131083323       -0.33070612079978
C           -2.70843677634602        0.94001311461012       -1.46055268667928
H           -3.92348306630177       -0.66921796182855       -0.73219921644737
C           -1.80405847656183        1.95459676053412       -1.17382987182431
C           -2.96586669870113        0.61472628879680       -2.78412898514183
C           -1.16306714647730        2.63484394393114       -2.19239229323857
H           -1.59288651072312        2.20621951809381       -0.14493795689047
C           -2.33043670968458        1.30120096806063       -3.80447041984962
H           -3.65053862538388       -0.18799362381165       -3.01214280278449
C           -1.42758371947003        2.30925346686599       -3.51184528359551
H           -0.45542916121607        3.41616680797489       -1.95332289773496
H           -2.53416707587342        1.04056795619611       -4.83258593339116
H           -0.92687541503810        2.83802847482199       -4.30982814955561
C           -4.25398679844376        1.05734692796682        0.52612951337609
C           -4.80921387996344        0.30160011107350        1.62873308470374
H           -5.05861838947169        1.43964982468193       -0.10688064919975
H           -3.68079876197450        1.90249456337683        0.91665577780824
C           -5.21410870286760       -0.36057513395876        2.53952369623982
H           -5.59593248219847       -0.92708234901671        3.33524107491285
Cl          -1.36166050375643       -3.33434292696608        1.44297175155957
Cl          -2.42776806081504       -2.54546273489981       -1.33314334910354
O           -0.09424158874167       -1.34535247340444       -0.85794885795217
O           -0.25096938421109       -0.99397620609599        1.59716199080392
C            1.87577678369030       -0.41455272173178        0.02927696242594
C            1.10888814936596        0.63499442388193        0.63604558289021
C           -0.52201060980682        1.19945076318339        2.29359871256269
C            1.86051563219313       -2.55564268774620       -1.06991129110916
C            3.22024106961477       -2.61907055180516       -1.02255864111819
C            3.30279978839877       -0.46453213079834        0.12248688924278
C            3.98604685916285       -1.57371968425524       -0.44090987358076
C            1.38119159258340        2.01937229680815        0.41725963867723
C            0.71835358626996        2.98371474542059        1.21717282306443
C           -0.20284279504507        2.52423854152681        2.19370086808358
C            4.05775122283189        0.48599536350080        0.83293168217893
C            5.38271012733883       -1.64024274541177       -0.36730450667778
C            2.21337248158033        2.46197888021747       -0.62505423412887
C            0.97257847342688        4.34597161056207        1.00545345088969
H           -0.68583377356983        3.23791944121281        2.84131983264553
C           -1.50582089114331        0.66071210647416        3.26954494411071
N            1.23609496628872       -1.44914690647621       -0.59014157803230
N            0.10467832016697        0.30310451940646        1.49601140884132
C            1.00420714504771       -3.63003431046206       -1.63735457737538
H            3.72624838679394       -3.48743320960706       -1.41064569146632
C            6.09972440496367       -0.66325630160389        0.28384722565330
C            5.42758306334587        0.38867577968534        0.90375713721179
H            3.55970697784397        1.30102651940941        1.33236968311528
H            5.88566429080715       -2.47973933703902       -0.82325148682456
H            7.17606080423194       -0.72114215787084        0.33615377312831
H            5.98572547712731        1.13268012199108        1.45148447272563
C            2.43185279629083        3.80483084304317       -0.82182668476236
C            1.82606822160666        4.75087088068333        0.00612502712231
H            0.47773534698346        5.07123585722893        1.63404269499440
H            2.67627610424840        1.73715719496604       -1.27626979999559
H            3.07115245507313        4.13042659676366       -1.62822743672280
H            2.01509283610621        5.80181566821808       -0.15236348879376
H           -2.35665829676111        0.22886191984561        2.74337398083164
H           -1.04938940354313       -0.14198798319367        3.84677931776270
H           -1.85164571048649        1.44557001049782        3.93505557802488
H            0.30828978508322       -3.22205775130624       -2.36882810188471
H            1.61622801661925       -4.39793256861331       -2.09949657327870
H            0.40186232768901       -4.07979683916308       -0.84712878552399
