63
 energy: -105.907979672703 gnorm: 0.000720499793 xtb: 6.5.1 (b24c23e)
Si          -1.57600970427524       -1.37332585194377        0.86692016977131
O           -2.81904530295675       -0.64301875759117        0.12118027197646
C           -2.92835879739266       -0.06930850282685       -1.16804478933720
C           -2.40424896632104        1.34383777434839       -1.12244713849170
H           -2.33477849015035       -0.65678266779184       -1.87352902416368
C           -2.99111097103195        2.27765264993678       -0.27692678534326
C           -1.30022551813486        1.71753748216280       -1.87643985179592
C           -2.49227328876546        3.56549137619159       -0.20079159694507
H           -3.83822450221743        1.98935250115007        0.32722866202261
C           -0.79829942152415        3.00496542093475       -1.79814729564848
H           -0.83036621854679        0.99386757360316       -2.52662834861439
C           -1.39668792376362        3.93277384676248       -0.96340474052937
H           -2.96081290843572        4.28412903486351        0.45553509809023
H            0.06448686134226        3.28347705065952       -2.38566130355873
H           -1.00560866971139        4.93753896632796       -0.90564330628906
C           -4.40633059814021       -0.13230039424054       -1.58618197912003
C           -4.78551451121706       -1.49991409620844       -1.87165807686158
H           -4.55517108779725        0.48982522771148       -2.47317640150117
H           -5.02548339965166        0.24822296112235       -0.77159026615407
C           -5.04462337798165       -2.64530682719224       -2.09944721370381
H           -5.30089379923881       -3.64344036289857       -2.29409631456907
Cl          -2.77737282191964       -1.54591275712232        2.61014774411693
Cl          -1.03511465077484       -3.37058704896916        0.90537399784334
O           -0.54426687921475       -1.08841382354258       -0.65912251036988
O           -0.40164549908811       -0.50040178074417        1.76478313304364
C            1.65085705290725       -0.61286248244717       -0.07732558599213
C            1.20133624714396        0.63614299437637        0.47012062602268
C           -0.32359687863044        1.80355254905155        1.91503459101749
C            1.11720891169847       -2.51423178815074       -1.42775153353350
C            2.43324412036662       -2.87156182584370       -1.48706473486889
C            3.02359902453110       -1.00622363145572       -0.04355666352812
C            3.42136185438600       -2.16362122783592       -0.75822429606315
C            1.81359482142738        1.87634972934690        0.10716704308536
C            1.36417058949961        3.07134425143898        0.72404381688275
C            0.28737381914611        2.99083436086278        1.64614612965691
C            3.97766375137964       -0.33802363495164        0.74338848265645
C            4.76321196942393       -2.56834522343552       -0.72461932238145
C            2.78141666076595        1.97442114289239       -0.90798021535908
C            1.95726337530907        4.29235049144469        0.38412327175649
H           -0.07176284083152        3.89109498825077        2.11579106846309
C           -1.47252931807929        1.66350371048917        2.84671576069458
N            0.75437634836263       -1.43584790192413       -0.68956466304847
N            0.14937745413667        0.66981100871069        1.33865320312116
C            0.05184657747031       -3.22075561073468       -2.18990105809893
H            2.72383298698392       -3.72304437760446       -2.07981886161391
C            5.68417410784204       -1.87369161892782        0.02277078719289
C            5.28353667132807       -0.76527489926806        0.77036217636267
H            3.67696251968350        0.51311245418370        1.33421449643060
H            5.05643237548398       -3.44109514807333       -1.28847497864616
H            6.71510955291937       -2.19249176595811        0.04699276138791
H            6.00393385360401       -0.24359991604003        1.38177862303404
C            3.33481019762420        3.18985599798886       -1.23719238918474
C            2.94090559184711        4.35215060356629       -0.57703635503853
H            1.62161708730472        5.18883411886285        0.88377861487475
H            3.09251638034365        1.08790638440092       -1.43729958766244
H            4.07735855276336        3.24250978930850       -2.01913624395806
H            3.39327851619292        5.29756269445886       -0.83455255644001
H           -2.33964826624052        1.26773743922003        2.32050972876817
H           -1.23955410777544        0.94735958218909        3.63395867971114
H           -1.72317564041769        2.62435155073376        3.28467755820850
H           -0.58046560064220       -2.50124556555422       -2.70639721222291
H            0.49559008693144       -3.90148005806873       -2.90941007962484
H           -0.58252795928300       -3.78231016020503       -1.50634821593275
