63
 energy: -131.229052603679 gnorm: 0.000649437921 xtb: 6.5.1 (b24c23e)
Si          -0.50269840366228       -1.12211927794656        0.74136159278161
O           -1.61549590898049       -1.62369398681264       -0.29720191344401
C           -2.80165704217314       -2.36404608016424       -0.11663386977077
C           -3.92545802609591       -1.68361516619968       -0.85444593830233
H           -3.03641453015473       -2.42110001274467        0.95316869158485
C           -3.66920235567668       -0.97048130072181       -2.01728791426345
C           -5.22808063731830       -1.77700539609076       -0.38389647022864
C           -4.70304580525976       -0.35042989393209       -2.69626188038133
H           -2.65233247750264       -0.89493299900260       -2.37117693181346
C           -6.26176158253824       -1.16345100925967       -1.06870655684093
H           -5.42821646954750       -2.32551474333715        0.52524159248370
C           -6.00116326780538       -0.44724703903602       -2.22492115101316
H           -4.49573448768556        0.20922518218855       -3.59730510848725
H           -7.27264433453782       -1.23777926378528       -0.69527476827913
H           -6.80816848417044        0.03752307318424       -2.75504861579948
C           -2.57628950278805       -3.78774862863779       -0.66133393310944
C           -1.59580999953830       -4.48646284330724        0.14121094967833
H           -3.52583614810862       -4.32860526479900       -0.64919330061576
H           -2.21813766901915       -3.71258365216168       -1.69102241618053
C           -0.77791127204921       -5.01766537558079        0.83391222772198
H           -0.05804628705320       -5.49790043942274        1.42609414532434
Cl          -1.43901915530799       -1.50334311568366        2.58389660693493
Cl           1.25583431194935       -2.08725140771613        1.24935182809347
O            0.32264967050815       -0.51421425949647       -0.90488160978313
O           -0.41683885412065        0.52481591507649        1.24421475451649
C            1.90798062269477        1.03877067212953       -0.25515086605298
C            0.85966707419319        2.00394058508582       -0.10314872890828
C           -1.39176751013940        2.47968121739344        0.53096921612664
C            2.53754940583648       -1.02977466425364       -1.23063265486511
C            3.86410800907264       -0.79260823367557       -1.03351271784578
C            3.27434476584107        1.28658104540392        0.09137482507251
C            4.26622400116894        0.34804143791297       -0.28867084290956
C            0.97018406653973        3.32382940375846       -0.66094038695054
C           -0.13079604456544        4.21433687338987       -0.56550004793249
C           -1.33250666732667        3.74478572759677        0.04007022418641
C            3.65094665680920        2.38091988226385        0.88665648918035
C            5.60129580358616        0.56669668702301        0.07480126220286
C            2.09426034579755        3.75082397744625       -1.38684525303658
C           -0.04172167360193        5.50363769367302       -1.09515861727262
H           -2.19380311893720        4.38937648674183        0.09010706750745
C           -2.63841193348912        1.96898267533118        1.21884321874358
N            1.58948128669235       -0.16375001007525       -0.79855784677358
N           -0.32160902220326        1.64515381257760        0.48654615002300
C            2.05141369246155       -2.16571557401387       -2.10257148560037
H            4.60209575110220       -1.48219951918701       -1.40717814749252
F            3.09468619326971       -2.87671750568248       -2.56336495728786
F            1.43259377629634       -1.67802443711116       -3.19363827981246
F            1.22361712198817       -3.03667789326956       -1.54448827309381
F           -2.46119044920256        1.78635470529151        2.52861584874755
F           -3.10324263336556        0.83422733665492        0.69853329887205
F           -3.63400968342900        2.86573957644109        1.10151453217307
C            5.94789207972284        1.66427981121369        0.82773352359501
C            4.96602147159607        2.56314151831328        1.24577497332202
H            2.89726800941539        3.07485395743819        1.22405284876725
H            6.34741111447503       -0.14868429920656       -0.23442638807589
H            6.97659245686300        1.82458633587985        1.11084112856133
H            5.23893284726343        3.40496330648978        1.86311692944381
C            2.15491326581747        5.02276334486501       -1.91414962817572
C            1.09889996690227        5.91415393604101       -1.75182670349323
H           -0.88535976584084        6.16794923909379       -0.98866861650688
H            2.92107529692684        3.07808764201313       -1.54316742007991
H            3.03186947045281        5.32454826663054       -2.46577340976000
H            1.16346466793944        6.91118696777792       -2.15838527538680
