63
 energy: -131.233387990129 gnorm: 0.000371062602 xtb: 6.5.1 (b24c23e)
Si           1.17470180573346       -1.82973279841874        0.04474798793781
O            1.83012544368627       -0.37453824444444        0.21293065302022
C            2.91185546043800        0.29542199765152        0.82164366280781
C            2.37066004234788        1.25927297628422        1.85127101442449
H            3.40940457680111        0.85425688282331        0.01583269934390
C            1.33775952582713        0.87562598714969        2.69588582483701
C            2.90926949111312        2.53346801697643        1.97016327472154
C            0.84542433503139        1.75826532459610        3.64016223672964
H            0.91783407628710       -0.11507041702136        2.61012322721944
C            2.42350381980591        3.41064545504195        2.92305915387971
H            3.71366668818942        2.83625295271291        1.31499135819125
C            1.38817313616779        3.02587285055209        3.75744963742843
H            0.03966230745143        1.45176751335757        4.29019332593730
H            2.85200784894787        4.39779883378438        3.01234379064716
H            1.00618806776369        3.71235332263821        4.49812575473010
C            3.94484901454886       -0.64549203897625        1.46126265939392
C            4.53047066487933       -1.51095794992537        0.46025018655870
H            4.72149122468328       -0.03002358655587        1.92310531406202
H            3.46321607205119       -1.24821645887447        2.23345228054491
C            4.97043173658760       -2.19797838184141       -0.41447909351903
H            5.36948962851462       -2.81716657999535       -1.16048451818941
Cl           1.71705152572543       -2.86540402626559       -1.55555639867168
Cl           1.55465539293866       -2.94623916576334        1.69668243687011
O           -0.43639502456306       -1.65451005570196        0.46488602258353
O            0.12130407860369       -0.48471782231518       -1.85797911331369
C           -1.96724716899692       -0.00336297447824       -0.31466461366251
C           -0.91750734796253        0.97003779588407       -0.43853733240081
C            0.99835776381478        1.60819658774385       -1.65726270275936
C           -2.54863794144314       -2.32156445952596       -0.19523842041628
C           -3.86133225389326       -2.06443582346160       -0.41473158059840
C           -3.34097325745488        0.32171713050860       -0.54060172443643
C           -4.30958470204901       -0.71659131900524       -0.57457070814965
C           -0.87418608228117        2.19932176725304        0.27985312030219
C            0.11205413399190        3.16222206382271       -0.05197006158353
C            1.03143648265242        2.84516544023302       -1.07588535874608
C           -3.77741937409182        1.62919721806488       -0.81766060803534
C           -5.65331837684236       -0.42065645025135       -0.79215874304583
C           -1.73195733039294        2.46109559128564        1.36226958940876
C            0.15531584951748        4.38007402736422        0.64576615481938
H            1.77180372173541        3.56608404156160       -1.38127658743305
C            1.95518302709318        1.21357599860472       -2.75260765363351
N           -1.62265712284603       -1.32569413008213       -0.13411488039557
N            0.07076716597940        0.67334340229701       -1.32603075955058
C           -2.06963314867973       -3.73045626694865        0.05717016584087
H           -4.57101464113615       -2.87197612051251       -0.47951411487362
F           -3.05992208613263       -4.61358524240950       -0.14075923421296
F           -1.66193948732997       -3.91252907633342        1.32005551299369
F           -1.07048524881117       -4.10458557369738       -0.74364926278338
F            2.73805304278101        0.17616938174695       -2.45242318594998
F            2.79350164251781        2.23149016887571       -3.03504252408638
F            1.32819220076348        0.92720180638504       -3.89879668550929
C           -6.05949914693792        0.88169831681464       -1.01074646832380
C           -5.11086294660253        1.89727089302435       -1.04240360217227
H           -3.06341032684565        2.43457490371725       -0.86407869042658
H           -6.37071915652028       -1.22690592789576       -0.79517729097643
H           -7.10131465123509        1.10562888426014       -1.17744338480607
H           -5.41693817749716        2.91083950388513       -1.25214564976597
C           -1.65532215672076        3.65188747209055        2.04089517681810
C           -0.72273834539477        4.62481920412578        1.67024653808072
H            0.89775148525382        5.11122847643298        0.36533795514923
H           -2.45085151108820        1.71266712235941        1.65699798441831
H           -2.31841747522593        3.83829508727242        2.87154241768540
H           -0.68593299124993        5.56135849152282        2.20486883504742
