63
 energy: -131.229033895605 gnorm: 0.000358265560 xtb: 6.5.1 (b24c23e)
Si           1.22558770451689       -0.72198823437458       -1.47173976283834
O            1.93881771958143        0.61240487481418       -0.87359665880168
C            3.18915175086658        0.87586622277955       -0.24704561952032
C            3.19773321849934        0.22201556048016        1.11626721518224
H            3.17748974162404        1.96844083578241       -0.10794076232843
C            2.20044511769455        0.60821632952817        2.00621901574756
C            4.09725567569629       -0.76028517300018        1.50205981160978
C            2.08988276772452        0.01819795759965        3.25043885294641
H            1.50315171039361        1.38101055943129        1.71285916437069
C            3.99289633181916       -1.34466652777803        2.75345897880898
H            4.87335406162483       -1.08874343633010        0.83122123274889
C            2.99025359247678       -0.96403475041639        3.62743887152853
H            1.30211912487084        0.32787030824090        3.92321965752669
H            4.69624292004154       -2.11154730313391        3.04124570780399
H            2.90884863198318       -1.43048570927785        4.59820070160310
C            4.36998307827126        0.52768603220276       -1.15718633011999
C            4.24109670678053        1.22338364609286       -2.42103019468555
H            5.29492778887249        0.83065286524673       -0.66018979696232
H            4.38755540634059       -0.54664313882257       -1.34733348748089
C            4.08295687461268        1.80003854137285       -3.45684504269241
H            3.95930776637346        2.29213473288907       -4.37428862751615
Cl           1.10638960609888       -1.05123636735983       -3.45890442398830
Cl           2.59020423936052       -2.22162554901392       -0.94664992938972
O            0.16439396024235       -1.48490301230002       -0.32524848508319
O           -0.30123954499822        0.48037470719885       -1.78375791403482
C           -1.89685325599917       -0.40330167859319        0.13896345115543
C           -1.23653918800335        0.86212117707435        0.27792187426392
C            0.02825603954465        2.54852727322897       -0.79277766226706
C           -1.78325896580636       -2.70543010305836       -0.46083323739021
C           -3.11143021089666       -2.89345191482011       -0.24435551673619
C           -3.31070879440757       -0.53441219399710        0.34495425253053
C           -3.92692952443385       -1.79932005663378        0.16556033467201
C           -1.33313098735223        1.66518655164160        1.45658674719057
C           -0.76770098506721        2.96539004168764        1.44999315262277
C           -0.11779548751629        3.40022032068329        0.26688805568710
C           -4.13659065100771        0.56502256793274        0.63119210741092
C           -5.30255434365445       -1.94411425497896        0.35804260989802
C           -1.87466544988284        1.17306493705032        2.65517138863876
C           -0.83264023366574        3.75715837385170        2.60435371454595
H            0.29979612439719        4.39276656953487        0.21442160062452
C            0.74177243692096        3.09675203186890       -2.00761374398049
N           -1.18945761645586       -1.49814960103616       -0.27225088191338
N           -0.50325103618817        1.30645552293292       -0.77849352709043
C           -0.88881793250449       -3.86141875668191       -0.85067650805340
H           -3.55487615421602       -3.86283637239637       -0.39785669108332
F           -1.61798466245878       -4.97900500720433       -1.01480770046536
F            0.01163200041074       -4.14650979296883        0.09298404766884
F           -0.24591141382521       -3.66632144593555       -1.99916070378063
F            1.92686233226838        3.62089245175958       -1.65037340692700
F            0.02658666339489        4.14266365877722       -2.49329772585217
F            0.95336068403886        2.29335506642720       -3.02793937700414
C           -6.08120315304906       -0.85493403007176        0.68789099286359
C           -5.49392368926981        0.40150682431245        0.80316367282691
H           -3.70977336657918        1.55141530257306        0.71031492487195
H           -5.74518169740849       -2.92036756960790        0.23462402045233
H           -7.14350110156678       -0.97090925632361        0.83458419378251
H           -6.10709977526918        1.26214976813665        1.02165739521462
C           -1.90922072357377        1.96322210714333        3.78071544660625
C           -1.40536649617404        3.26420378672803        3.75350381462331
H           -0.41368935365848        4.75112466970299        2.57761334018659
H           -2.25675162790023        0.16514572761697        2.69061267967048
H           -2.32369792829721        1.56957413567043        4.69594872768067
H           -1.44939042626341        3.87488119612274        4.64188396244151
