63
 energy: -131.232881909695 gnorm: 0.000525101980 xtb: 6.5.1 (b24c23e)
Si          -1.09090959992835       -0.47786757260388       -1.32443016896871
O           -2.31631799037308       -1.04103711237101       -0.46289695308578
C           -2.91953839203417       -0.75370269986146        0.78030732734021
C           -4.41722389075832       -0.71511041843063        0.61022815522764
H           -2.56204110476212        0.21011749228031        1.14816597212316
C           -5.04178276683812       -1.50552426797457       -0.34425237297581
C           -5.18386228199474        0.10122360523389        1.43165476320590
C           -6.41898973359026       -1.47522637073882       -0.47754972370334
H           -4.44008050725307       -2.12743822201782       -0.98882083867248
C           -6.56076961771149        0.12493287970367        1.30068666362962
H           -4.69734871512681        0.72230016471043        2.17066782075201
C           -7.18069026590043       -0.66317871991035        0.34529113644556
H           -6.89838654262546       -2.08741036131032       -1.22704074856305
H           -7.15057940947509        0.76478948887546        1.94079450847337
H           -8.25533655412163       -0.63934944070402        0.23963435059042
C           -2.52346259606193       -1.85327765881263        1.78714519509107
C           -1.18243572585968       -1.65961652509517        2.28981089664871
H           -3.22456444500506       -1.83563023321571        2.62552723350810
H           -2.59222308003822       -2.81934586844852        1.28192785091247
C           -0.07638447411906       -1.46972910364407        2.70657019233127
H            0.88314778060133       -1.30767540994076        3.09927008593956
Cl          -1.03446131263817        1.24920896380382       -2.45113427093713
Cl          -1.40791536350487       -1.78724166795570       -2.88356728930733
O           -0.61217090256525        0.66852934574365        0.29587724367366
O            0.51744377876457       -1.04649394197840       -1.18862803578720
C            1.56382425720537        1.33556666111998       -0.07075119599606
C            2.01032681895048        0.02950460126743        0.31856194620372
C            1.73215269770756       -2.33936670323782        0.26757200355053
C           -0.21317956062335        2.90243410027530       -0.02576537749629
C            0.60457936326494        3.93910540629824       -0.36346157508057
C            2.44648986293909        2.35685337411327       -0.54692575805188
C            1.95676488243191        3.67765755968725       -0.70567371842220
C            3.07630451243033       -0.12957130602862        1.26897876971106
C            3.48179647136809       -1.43408392916245        1.65355244998767
C            2.76807222780640       -2.54762260320416        1.12090314106672
C            3.75914366824512        2.07145273364839       -0.95546856046932
C            2.80837783732445        4.67830923885825       -1.19268927683294
C            3.68370206209808        0.96049129619568        1.91391885059195
C            4.52073985543333       -1.60662708331643        2.57046600112870
H            3.03349222252875       -3.54681191401835        1.42247356804659
C            0.97525571235477       -3.50424728514456       -0.32969529510769
N            0.24649549397391        1.63075726166063        0.06294453187988
N            1.37847594473363       -1.09331017452576       -0.14129449464240
C           -1.63505789482084        3.12645489750787        0.42958330271879
H            0.21986220424230        4.94419741471299       -0.40398873966890
F           -1.78966758635909        2.73605954333247        1.70962178984063
F           -2.58247010166629        2.51243153902307       -0.27105609619596
F           -1.93639639646096        4.43367929605484        0.40851157654339
F            1.18822562770677       -3.63267887282534       -1.64072611957542
F           -0.33973757204147       -3.44615349494321       -0.12406047540072
F            1.38425426380340       -4.65824937140556        0.22639467125764
C            4.10068118650114        4.37798553163010       -1.55350468388009
C            4.56870057292500        3.06744875706598       -1.44926695174111
H            4.12701243980612        1.05961487295584       -0.88954162902679
H            2.42621659429452        5.68244779537600       -1.29180310825756
H            4.75083204979314        5.15037341233390       -1.93411687270397
H            5.57252593956748        2.83117061348398       -1.76662295347782
C            4.69779343825023        0.76684356466077        2.82737194991541
C            5.13833803024415       -0.51431806326809        3.14346884677849
H            4.82338070977241       -2.60935249655634        2.83020336591120
H            3.35161681606477        1.96347969805151        1.70257975178230
H            5.14700863646006        1.62264709693242        3.30725778354857
H            5.94065642467745       -0.65248831395099        3.85100458767142
