63
 energy: -131.228909352693 gnorm: 0.000454763855 xtb: 6.5.1 (b24c23e)
Si          -1.11054593463545        0.05497234625355       -1.11637089208260
O           -2.70281079156685        0.04511552533070       -1.21413879448528
C           -3.65342411839550       -0.94610892478323       -0.82768073614734
C           -3.57427921403411       -1.20580221214020        0.65274345962413
H           -3.42076526355742       -1.86624601294223       -1.37865523802179
C           -3.62774106654547       -0.14257261366592        1.54425625592307
C           -3.43569085527446       -2.49827297017524        1.13901257049673
C           -3.55366873301233       -0.36976310523324        2.90570676262536
H           -3.71824283721457        0.86331787475182        1.16673371928081
C           -3.37163196012772       -2.72522941821396        2.50231720933881
H           -3.38099926180165       -3.32757738437334        0.44868879642026
C           -3.43451627584853       -1.66256586978962        3.38697027624789
H           -3.59218297995907        0.46530235998000        3.58867148422685
H           -3.27085712524462       -3.73447715244291        2.87244247168051
H           -3.39134648602704       -1.84305968222662        4.45091813647678
C           -5.04123308299121       -0.43606528535431       -1.24070142975233
C           -5.18392456239801       -0.42382252064067       -2.68144109557275
H           -5.80188010440769       -1.08597903364109       -0.80011081033569
H           -5.17128526207035        0.57690015226992       -0.85430097817120
C           -5.27562388645638       -0.43440008639309       -3.87406290192892
H           -5.36864165587124       -0.43086466896556       -4.91860288212935
Cl          -0.40456036221593        1.25159022378886       -2.53850603916970
Cl          -0.40668458883447       -1.82656096244024       -1.14744450624678
O           -0.73755375079479        0.72672956699140        0.36774387413224
O            3.12442959379565       -0.12961285380976       -1.22248892446551
C            1.59793088515590        1.16495433434794        0.55390148577032
C            1.80628799904640       -0.25316478734637        0.64992105056264
C            2.82674139038974       -2.17281231163582       -0.27598409219159
C           -0.00859013752081        2.95086000372256        0.49329710059079
C            0.95135742773421        3.87977187142575        0.28937797008643
C            2.64214053086099        2.11302602951702        0.38898476615741
C            2.32377476736240        3.48441857685055        0.18634242808041
C            1.16947605213596       -1.06489786321668        1.63419941081331
C            1.35411947730032       -2.47142556591831        1.60054739355736
C            2.21366338282796       -3.00437268040673        0.61608641013238
C            3.99962119567093        1.75480760257517        0.46965028521746
C            3.33558609337739        4.41150801227133       -0.04149896161714
C            0.40617100820327       -0.52153075240616        2.68290324753349
C            0.71138989527689       -3.28459935143389        2.54815097320607
H            2.39291178946524       -4.06618108039037        0.57212532507525
C            3.75168145845422       -2.69067305174512       -1.34787612100678
N            0.29263742048907        1.62067016979067        0.60636428714873
N            2.61149692144531       -0.82267054445830       -0.30158871951094
C           -1.45259281287915        3.32268423672223        0.69855156460153
H            0.69399606712045        4.92532419259472        0.24210232450182
F           -1.59765782221883        4.64551535527599        0.85318992219893
F           -1.96276115223689        2.75811331768747        1.80485846428758
F           -2.26083795416046        2.97807737813631       -0.31302630227971
F            3.28993186921166       -2.50517808630336       -2.58657303383143
F            3.93964364063559       -4.01817962178408       -1.21713359735699
F            4.97246428608175       -2.14381191872040       -1.28402303096346
C            4.65964238458729        4.01416286261235       -0.04527693095312
C            4.98325479299469        2.69151146961122        0.23842064294944
H            4.28175433122376        0.74790308702524        0.72543297351853
H            3.07207208555397        5.44439246505213       -0.21233838131741
H            5.44038469385011        4.73333385938165       -0.23796653957292
H            6.01909740392237        2.39255189240041        0.28481007416137
C           -0.19275547236280       -1.33690180480291        3.60967238949990
C           -0.06094543629615       -2.72607427624593        3.53279307897806
H            0.84717247895305       -4.35368555845709        2.48741431763874
H            0.30010266012237        0.54741099819351        2.77480114846271
H           -0.76753691936332       -0.89837773521403        4.41010567466404
H           -0.55166511692935       -3.35164301684324        4.26227021323997
