63
 energy: -131.233709556129 gnorm: 0.000631231870 xtb: 6.5.1 (b24c23e)
Si          -1.24897619660290       -1.07288404049843        0.84975719856018
O           -1.95489314201026        0.11730294551069       -0.01744442804380
C           -2.90350798111457       -0.00797600630405       -1.05965287468028
C           -4.26857172550380       -0.40306540947065       -0.55832957230741
H           -2.54967019169810       -0.77286131874524       -1.76089505809184
C           -4.68706982928707       -0.08773436151810        0.72481674436961
C           -5.13138044822722       -1.08300883450600       -1.40895134127117
C           -5.94973940515737       -0.45536701150687        1.15644929689885
H           -4.01881672926723        0.42596180218927        1.39623028724444
C           -6.39493084770678       -1.44219991903545       -0.97947765875642
H           -4.80338885430101       -1.34149760861585       -2.40551059669942
C           -6.80689232105575       -1.12952100380625        0.30552018539086
H           -6.25954968774066       -0.21540552469667        2.16243238652580
H           -7.05707673793674       -1.97461277450575       -1.64624205713683
H           -7.79149170648409       -1.41751519028643        0.64327356331938
C           -2.97217224011474        1.34455704953361       -1.79382133205345
C           -1.72084627972171        1.62626670961058       -2.46171257469795
H           -3.77656583355966        1.29809272771971       -2.53173349947421
H           -3.20260321312615        2.13426327007553       -1.07594979234061
C           -0.66705348837795        1.80297802788844       -3.00082614755996
H            0.24215508578499        1.97336397476360       -3.49510148227286
Cl          -1.79591552875750       -1.59058780387659        2.73216755443993
Cl          -2.03270132075839       -2.74328588992867       -0.15638877944152
O            0.28537758257567       -1.49492234256024        0.15010255473516
O           -0.29093741599417        0.33379422453204        1.74225109452535
C            2.09338910896202       -0.02602419282214        0.60249672494197
C            1.29968071383765        1.12340314781608        0.27788690200008
C           -0.56255913317626        2.46045139794871        0.85746323229758
C            2.24953179708306       -2.37784440753535        0.95429740681699
C            3.57153568593153       -2.31159154291696        1.26034859034129
C            3.47432312678625        0.10938856242297        0.97537633154595
C            4.23133268862517       -1.04942493024477        1.28462151208981
C            1.71029251786967        2.10079696704001       -0.68359590968429
C            0.97223175841815        3.30469466902494       -0.80096607731179
C           -0.15763162585407        3.47536527622001        0.03734236220081
C            4.09360737213917        1.35965568304405        1.13712416515373
C            5.57786598968556       -0.93618474574852        1.63890737813964
C            2.76712685961812        1.87064863412048       -1.57900828920992
C            1.36130069717268        4.27109464422554       -1.73757077735946
H           -0.72060397681544        4.39370203422042        0.00282461250209
C           -1.74684680420887        2.74445964800094        1.75123469149844
N            1.53120547352875       -1.27174625224514        0.62695656574217
N            0.13508031722398        1.30764158289900        0.95508733283430
C            1.52929604894810       -3.70788678020648        0.89908088375257
H            4.11801782926181       -3.20629149304172        1.50685512606159
F            2.36316353364617       -4.70127996266299        1.25582300190413
F            1.10526192869273       -4.00884940683967       -0.32890804502059
F            0.49521207184636       -3.77504102071800        1.73388612141101
F           -2.75526490831311        3.27630936319589        1.03503698566298
F           -1.40264931562528        3.70135701287825        2.64420883459115
F           -2.26009316160172        1.75217155165509        2.45050810368667
C            6.17452832593818        0.30288727453914        1.73272201426499
C            5.41887886454137        1.44901990893868        1.50318084460028
H            3.52800860264081        2.26374516364306        0.98234820636416
H            6.13777771482317       -1.83465203275714        1.84733488368392
H            7.21462134066306        0.38623589641650        2.00601528721513
H            5.87092540674838        2.42181202913193        1.62016356473906
C            3.11666169359874        2.82574911473521       -2.50610285589632
C            2.42762113837631        4.03751514977014       -2.57468027571762
H            0.79962161872894        5.18991466434163       -1.80097617210694
H            3.30124299390772        0.93431056695830       -1.54246303354326
H            3.92679507615388        2.63171067296800       -3.19226974009977
H            2.72060608633276        4.78048845960524       -3.30035216126591
