75
 energy: -118.571082343183 gnorm: 0.000364715116 xtb: 6.5.1 (b24c23e)
Si          -0.42706044994292       -1.78719034354097        0.40530746813325
O           -1.88402736227797       -1.06226837262431        0.32451259777048
C           -3.12853593798275       -1.50929416123395       -0.15405883031385
C           -3.65405549226774       -0.56998483613137       -1.20905659961800
H           -3.01165416761250       -2.51212361051553       -0.57950552643735
C           -3.34513420441040        0.78225017870769       -1.17008605267003
C           -4.48173476674138       -1.04766396611576       -2.21691304013216
C           -3.84568188879539        1.64503483307294       -2.12873898854750
H           -2.70030638026814        1.15404088288036       -0.38900842606714
C           -4.99233077121516       -0.18313128340527       -3.16825963436965
H           -4.71815549035268       -2.10108388664847       -2.25723090497794
C           -4.67423214810840        1.16453828317369       -3.12783595199530
H           -3.58698337236845        2.69388993408465       -2.09225442076596
H           -5.63561962194706       -0.56301936875906       -3.94838379761175
H           -5.06896226901657        1.83680085667233       -3.87548661846710
C           -4.12592439653921       -1.58459524034288        1.02248306351936
C           -3.57621355999719       -2.38957679086545        2.09207745695036
H           -5.05985088952782       -2.02216744142510        0.66222305136258
H           -4.32803697933294       -0.57463992952872        1.38862526657845
C           -3.04932166349633       -3.03571470308151        2.95038580007647
H           -2.59445389206322       -3.61325944172191        3.69824788888474
Cl           0.26528127322346       -3.00960870710574        1.90744035293504
Cl          -0.86933921858348       -3.43304910823375       -0.92215866870280
O            0.62116111804764       -1.21142481913751       -0.82539846955702
O            0.15270618291150       -0.45626645575980        1.49811126542323
C            1.89592795788827        0.66328594849339       -0.21560492965558
C            0.69859233912273        1.35857809469885        0.16561772762399
C           -1.11699283091508        1.48450602403555        1.72118780722614
C            2.93290036190093       -1.39842292182427       -0.90073709266129
C            4.15973980390392       -0.80591354130882       -0.88347008036500
C            3.17520522786818        1.29735929095772       -0.14139324465438
C            4.32456171861283        0.55372349168922       -0.51002425572634
C            0.35438780969111        2.63710948985187       -0.36695160356849
C           -0.71655926482244        3.35227624863394        0.22214094595791
C           -1.39781485678694        2.75894252651408        1.31608369751662
C            3.35996836448352        2.59412220263071        0.37126395243182
C            5.58840425813827        1.15379076214229       -0.45503033010898
C            0.98192639629737        3.17185857587563       -1.50489644228039
C           -1.07639454067572        4.60402401445760       -0.29560553524359
H           -2.17579980783867        3.32020142356231        1.80379625511061
C           -1.80806834307029        0.78766219885603        2.85974742837394
N            1.83981531383339       -0.64454875568702       -0.60338763856866
N           -0.11173092420604        0.80913893488350        1.11185788991951
C            2.70539689599806       -2.82972483546447       -1.29954227888120
H            5.03491986621313       -1.37891261482936       -1.13478833723400
C            5.73289668117654        2.44543633373830       -0.00328143445732
C            4.61436472098185        3.15444985310905        0.43149514865814
H            2.51139376895756        3.15655476333520        0.72577052790727
H            6.44923257247488        0.57984332717027       -0.76381579772286
H            6.71000015666119        2.90186809953766        0.03758214673510
H            4.73283253847914        4.15185803504829        0.82686277401415
C           -0.42133400940576        5.12244847928033       -1.38810875706917
C            0.59912428936594        4.39508748119386       -2.00163999090277
H            1.76593791460439        2.61157890613373       -1.99004565623120
H           -1.88253608610612        5.14908766613172        0.17274005703390
H           -0.70488838494329        6.08611479928406       -1.78344932161499
H            1.08769304308860        4.79334602453366       -2.87777336652346
H            1.88896870468206       -3.22846797045764       -0.69304059000100
C            2.26988468906977       -2.88147980719908       -2.76928588682943
C            3.93092808770033       -3.70986943429130       -1.07032955196258
H            2.09984698824826       -3.91390942248123       -3.06040679043622
H            1.34197727506457       -2.33480373848368       -2.91050676584408
H            3.03943264563035       -2.45363921464432       -3.40960442305029
H            3.64882265911771       -4.75000189627650       -1.20924795867397
H            4.72348600042716       -3.47964953393017       -1.77882665351394
H            4.30942595458722       -3.59124691976258       -0.05805835733077
C           -3.14859608518711        1.41932318188967        3.22332951335747
H           -1.97729308547749       -0.24978437779302        2.56022583005736
C           -0.87435409661095        0.77629959617293        4.07668116402490
H           -3.77263830019147        1.55486545387250        2.34247509603501
H           -3.67288458090704        0.76761649345143        3.91804215305093
H           -3.00950226711637        2.38437237469651        3.70652986587679
H           -0.62398798706967        1.79286990391820        4.37611667526817
H           -1.36638460596279        0.27778590094042        4.90731587094871
H            0.04057640169669        0.23684958129669        3.84775926258967
