75
 energy: -118.572123846879 gnorm: 0.000591493999 xtb: 6.5.1 (b24c23e)
Si          -1.01554304339283       -1.11936568686043        0.28707136231437
O           -1.95096936260286        0.12816415904149       -0.19023214356581
C           -2.96755763924138        0.17604886862736       -1.16192238867823
C           -4.25754382115986       -0.42607165310480       -0.66694070433314
H           -2.63540691375401       -0.36793976657958       -2.05374486642988
C           -4.58143496656503       -0.41098605504250        0.68121282559122
C           -5.14795167411189       -0.98700677294792       -1.57302260623819
C           -5.77391735722617       -0.95723364471625        1.12113879918105
H           -3.88695198410660        0.01141557292221        1.39184260901826
C           -6.34324514620168       -1.52561817670622       -1.13436511652066
H           -4.89347870930913       -1.01335756940956       -2.62271406497800
C           -6.65884247154962       -1.51247305569135        0.21404636795455
H           -6.00918904726607       -0.95079597110775        2.17525441651961
H           -7.02682852528922       -1.96525838959734       -1.84578221132503
H           -7.58911061631104       -1.94092728834966        0.55699533362012
C           -3.17957974902755        1.65739830487605       -1.52882465941390
C           -1.97649842671345        2.21356243957456       -2.10859229514069
H           -4.00431424189393        1.73023567510263       -2.24188899626684
H           -3.44498785166956        2.20819892032601       -0.62311596004728
C           -0.95728476242170        2.62330215256720       -2.58327496742617
H           -0.07444484234983        2.99934382362357       -3.00684899230371
Cl          -1.30399991256034       -2.21088579116600        2.00772632570881
Cl          -1.91435921643501       -2.61784550768650       -0.98714628265898
O            0.38726697131333       -1.28398432627594       -0.68056611446022
O           -0.11486875761948        0.01123866958735        1.38317624669295
C            2.23521978870594       -0.03043338264874        0.05383567542481
C            1.43189712497382        1.15839579492590        0.09054424973228
C           -0.37373523257175        2.31476747453206        1.15466541859048
C            2.34334888188553       -2.42506894699054       -0.18907323399952
C            3.68571007505756       -2.40611333099084        0.04214169100239
C            3.63384410738266        0.01178354009469        0.35443752850359
C            4.37682838722322       -1.19482690577953        0.30848445163337
C            1.81018358858335        2.35344418794196       -0.59362183998413
C            1.10955882502402        3.55067939904684       -0.31058455915537
C            0.04516079070726        3.50005736765613        0.62352997354417
C            4.29283138891929        1.17856450186122        0.78190361308406
C            5.75219967223893       -1.17577070256144        0.56981385863725
C            2.79225634559594        2.36467838359423       -1.59897838706315
C            1.47173025459298        4.73343792955087       -0.97078837631695
H           -0.46170636260030        4.41447291250706        0.87676870245984
C           -1.50597763495114        2.18375171653187        2.13486501448816
N            1.66951209832621       -1.24315979460994       -0.22151276860306
N            0.30449843386440        1.18036148554679        0.85252022330367
C            1.56683026445591       -3.67819356544176       -0.48307909172975
H            4.24190300826882       -3.32704652962879        0.04823558307550
C            6.38423109782685       -0.00462267808668        0.91944377931831
C            5.64161048564647        1.16745326502554        1.05028548708590
H            3.73735504946851        2.09415372264242        0.90433620206811
H            6.30605073690333       -2.10005405720025        0.50107813045310
H            7.44520743533417        0.00396353765876        1.11675337527701
H            6.12718044490987        2.07637150440640        1.37164116258067
C            2.46551197034256        4.72679129758624       -1.92137370971203
C            3.11190370457486        3.53359102942177       -2.24848899677215
H            3.29140042283200        1.44537345367101       -1.86329698351075
H            0.94468766970931        5.64489952196640       -0.73164967129385
H            2.73494006509223        5.63940361072630       -2.43138789759189
H            3.86395290193024        3.52736531141580       -3.02288716963085
H            0.56758957663347       -3.57044189134963       -0.05469391276302
C            1.41155566926012       -3.83368860972586       -2.00076466223842
C            2.20615127958361       -4.92418559386715        0.12397454379923
H            0.85433502574335       -4.74053783049927       -2.21667157293597
H            0.85953266727185       -2.99398695033190       -2.41261844515924
H            2.38740164380652       -3.89291207436335       -2.47969485545668
H            1.51335801807990       -5.75628298407657        0.03223317288221
H            3.12379755627277       -5.19284748645864       -0.39440822500877
H            2.42209072710699       -4.77449882808510        1.17904576869881
C           -2.45200426871300        3.38057148833515        2.12425422390477
H           -2.06587274239400        1.28778012739268        1.85760184222542
C           -0.93144593710004        1.96790285029006        3.54093051149206
H           -2.76615706981635        3.62413793426485        1.11203588521811
H           -3.33671348244203        3.14632728685093        2.71168588578928
H           -1.97971630866634        4.25590917671461        2.56509563528778
H           -0.30246753456289        2.80920831594948        3.82712760044270
H           -1.74224819581186        1.87847762332959        4.25916133953677
H           -0.34256734703825        1.05544446025093        3.57490391257616
