75
 energy: -118.568132658676 gnorm: 0.000744975377 xtb: 6.5.1 (b24c23e)
Si          -1.01614908967654       -0.51102404697201       -1.33236340531293
O           -1.99192310483566       -1.38687153757949       -0.38022462881966
C           -2.57928184375955       -1.12053218918419        0.87320347788161
C           -3.99726191393901       -0.64149316664415        0.69543257352857
H           -1.99863986014258       -0.35316856158006        1.39274034982612
C           -4.76128224813867       -1.08405017394158       -0.37508585851428
C           -4.54877505511609        0.24940209879715        1.60716762316721
C           -6.06220706000257       -0.63925260141918       -0.53141380145865
H           -4.32177324638003       -1.76169173267984       -1.09084161766307
C           -5.85113735512503        0.68869855720743        1.45224447388615
H           -3.95202648198631        0.60051924993020        2.43780089696054
C           -6.61018835413615        0.24487394012772        0.38219688484931
H           -6.64884074703859       -0.98370089262340       -1.36996150269324
H           -6.27294215135913        1.38284301122257        2.16480089992095
H           -7.62558036648676        0.59202204078689        0.25937213106089
C           -2.52723237661114       -2.42297048594658        1.69698237503379
C           -1.18549680053997       -2.64411563428320        2.18988275148033
H           -3.21984033651770       -2.34756502531155        2.53918160925201
H           -2.83354319728262       -3.25128838875461        1.05422601681420
C           -0.05962720001705       -2.74975307295026        2.58235143980570
H            0.91839043897247       -2.87538253056178        2.94059670291953
Cl          -1.44780832230213        1.18324451795909       -2.44935514812716
Cl          -1.43177678043132       -1.82655655858006       -2.94984906867032
O           -0.56997113933661        0.54770763484516        0.13958315241883
O            0.63792631329473       -0.91203235388388       -1.48250865343564
C            1.61541266000983        1.26132222035420       -0.09669665399607
C            2.04032349908222       -0.07748370953030        0.20669768356584
C            1.78483407989066       -2.44240398393557       -0.16944007712172
C           -0.19332993071358        2.83244937478195       -0.07727886175451
C            0.68034465807480        3.86463034863728       -0.26416380474536
C            2.54034337115189        2.30468896133592       -0.39953221090295
C            2.06116610183630        3.63500645563075       -0.48458010380861
C            3.02702183480856       -0.33174900101565        1.20926455121092
C            3.42204988169512       -1.67172225976567        1.45136318571477
C            2.77087965363100       -2.70909867119190        0.73275860964372
C            3.88988914963819        2.05009854928706       -0.69856745190488
C            2.95745625953361        4.67159460665271       -0.78115778467146
C            3.56086277356144        0.67703573960255        2.03103548476922
C            4.39891390683118       -1.94445792982728        2.41664585380720
H            3.05004481644143       -3.72878992310646        0.93397737571643
C            1.06237025677140       -3.50271178418463       -0.95126357925207
N            0.28896958522758        1.56525796212553       -0.03703104237240
N            1.47591916868244       -1.14489240186428       -0.43151917963827
C           -1.65560787236990        3.04037042746778        0.21322451017283
H            0.31425372460242        4.87684514401131       -0.27388763105311
C            4.28251761677991        4.40063913433031       -1.02744715584985
C            4.74305652046178        3.08334253650098       -1.00339908527365
H            4.25256799371955        1.03402779614964       -0.69168050246606
H            2.58590657578356        5.68453252753261       -0.82226225790581
H            4.96706280478291        5.20304780249615       -1.25704565067679
H            5.77666111469674        2.87366470858537       -1.23291571788015
C            4.94833324928448       -0.92895701563456        3.16617169883643
C            4.50665965539169        0.38026350019127        2.98478094962371
H            3.22500737679497        1.69504814365404        1.91572256547591
H            4.70743411231033       -2.96831195444307        2.56869017340239
H            5.70164684548635       -1.14641703422292        3.90782696841346
H            4.90536808610177        1.17055967005949        3.60252711109519
H           -2.18264479442122        2.10362971044161        0.02410075348934
C           -1.81295725089889        3.38535257460384        1.69903281353603
C           -2.27747724493862        4.11737759083226       -0.67103024483146
H           -2.86682994195807        3.50587843410049        1.93644188594473
H           -1.40647474339861        2.59182924333495        2.32288627304003
H           -1.29337108247085        4.31198988118486        1.93467368438161
H           -3.35289744605192        4.13354950962816       -0.51413128816194
H           -1.88534777914635        5.10350083854349       -0.43545030791391
H           -2.08565229372993        3.89505288285828       -1.71676404539217
C            1.03610067704049       -4.85166627567785       -0.23790587027135
H            0.02906207163242       -3.17734925842820       -1.08996586877542
C            1.70536594497826       -3.63465451214869       -2.33741689506381
H            0.66533381867554       -4.74165687519746        0.77852576238889
H            0.36947196134748       -5.52092918489237       -0.77517458871337
H            2.02219605640568       -5.31008370411209       -0.21620774612961
H            2.75267119523478       -3.91781436567219       -2.24603881480451
H            1.18094148649226       -4.39427239448448       -2.90948627572550
H            1.63325211413340       -2.69695013357075       -2.88075887127956
