75
 energy: -118.569904229920 gnorm: 0.000814227815 xtb: 6.5.1 (b24c23e)
Si          -1.11315638129547       -1.53560627515738        1.01296632938933
O           -2.41064796782580       -1.51727223777942        0.03381356048428
C           -2.50083615702211       -1.34979134754045       -1.36682010747164
C           -2.29584823286515        0.09702555704671       -1.73532405695346
H           -1.73328763103274       -1.96136966657532       -1.85191537598826
C           -3.05914857714929        1.08261847823147       -1.12266804197245
C           -1.33785566796908        0.46749181902958       -2.66899661579898
C           -2.87975389881775        2.41335124843029       -1.45560018762823
H           -3.78951243014983        0.79919224021282       -0.37904962653464
C           -1.14854138195485        1.79980088393349       -2.99097001458160
H           -0.73656684957409       -0.29451838174998       -3.14354703246225
C           -1.92515427774382        2.77534801724256       -2.39055683225002
H           -3.48897486031132        3.17363319074774       -0.98846518049673
H           -0.39489652333162        2.07877011687273       -3.71307451191301
H           -1.78264849129737        3.81430599857069       -2.64760504375964
C           -3.88967813859530       -1.84584946081944       -1.80609062202297
C           -3.95917011117864       -3.28944770838577       -1.73229686530408
H           -4.07931283099046       -1.51725183432657       -2.83183667871108
H           -4.64333644440395       -1.41332216605426       -1.14496213191656
C           -3.96749311111536       -4.48395369131752       -1.66540717572629
H           -4.00340587113388       -5.53036830731294       -1.60405772254479
Cl          -2.42300257513271       -1.79876189675918        2.66356899808590
Cl           0.11398129835962       -3.11215850264179        1.56078587937275
O           -0.06162420275359       -1.19638706294646       -0.47286701091094
O           -0.45427060196059       -0.13425316353780        1.75824555043814
C            1.72494044373328        0.15319905657870        0.08367911488500
C            0.79309056532107        1.22599206325370        0.30518774538086
C           -1.13289585406445        2.06705259638986        1.47431622728901
C            2.08390085629932       -2.05616989965136       -0.76741826126509
C            3.43560879488157       -1.89016705813538       -0.67129506940285
C            3.12930390084281        0.33187140463306        0.26677602477879
C            4.00195179338746       -0.71792202761661       -0.11281239691658
C            0.97177012879433        2.49237562649786       -0.33066480633044
C            0.10751060311287        3.55941012971456        0.01521892023041
C           -0.92435135656887        3.31071210463058        0.95780194996128
C            3.67316466866359        1.46916142327350        0.88870860393030
C            5.38355983260056       -0.56899758383962        0.07211886156796
C            1.91412220050002        2.69803201776698       -1.35305163684651
C            0.27099701099900        4.80838020049090       -0.59444633857163
H           -1.57085577567549        4.12327155819042        1.23869594033521
C           -2.20732951585062        1.74604819315904        2.47525860574363
N            1.26994815287157       -1.05120313429210       -0.35784793648077
N           -0.28059918380016        1.06391597212616        1.13157314179796
C            1.46380838803029       -3.25958312167321       -1.42474621968529
H            4.09241561545165       -2.67336161194243       -1.00944927314475
C            5.89267119702562        0.57059137556310        0.64834282968675
C            5.03075592807985        1.58360298796697        1.07030065782878
H            3.01694233650476        2.25439885240928        1.22994257352846
H            6.03866879108314       -1.36934408906379       -0.23788975033171
H            6.95715568722351        0.67805847113827        0.79116788965467
H            5.43315724994179        2.46212313333084        1.55125765768944
C            1.23428330214849        4.99658313089099       -1.55981107378281
C            2.04127235377036        3.93007337345445       -1.95121970801303
H            2.54012234289793        1.88048122588122       -1.67418671408691
H           -0.37922170152441        5.61927307439993       -0.30153085311766
H            1.35357873045470        5.96188995599188       -2.02800243198300
H            2.76999377439494        4.06956965821014       -2.73538880581948
H            0.39929773696728       -3.27336364574043       -1.18608676230200
C            1.61870902512929       -3.12105451319936       -2.94394365825647
C            2.07461999387879       -4.56751585838137       -0.92811998312834
H            1.13515653910761       -3.95803869447408       -3.44112532963266
H            1.16035487399772       -2.19920410757922       -3.29659158103665
H            2.67038900369214       -3.11122266982757       -3.22236961833867
H            1.52850018907489       -5.40444686224988       -1.35541416244706
H            3.11757500046667       -4.65752986569419       -1.22041183510010
H            1.99889732492932       -4.62310760189611        0.15377427506859
C           -3.36676160509299        2.73761245720153        2.45217217707424
H           -2.60064055830403        0.75111409494437        2.25227270813934
C           -1.58401638026386        1.69124536457090        3.87649032288593
H           -3.75189144685717        2.86641283430671        1.44418808841232
H           -4.16846191598664        2.35661198228395        3.07931516545103
H           -3.06621581835719        3.70665842080923        2.84470482569990
H           -1.13612328186899        2.65019524632851        4.13222053865851
H           -2.35369171504431        1.45339716122975        4.60472227735071
H           -0.82504330975182        0.91612235022343        3.92527760016478
