75
 energy: -118.572123952585 gnorm: 0.000516403657 xtb: 6.5.1 (b24c23e)
Si          -1.11870935553444       -0.97018714364413        0.36429820662864
O           -2.01041649508116        0.17109253364823       -0.38303037767433
C           -3.02370603926655        0.03546357608042       -1.35148660872885
C           -4.28251087162152       -0.55581630618173       -0.77053605032789
H           -2.65737922767893       -0.60810311194703       -2.15967659068276
C           -4.65076592322770       -0.28063552096129        0.53819791532510
C           -5.09422981637540       -1.37109654291349       -1.54702048093180
C           -5.80694235561466       -0.82235927172714        1.06985478677138
H           -4.01677617130587        0.34238042003621        1.15140308276482
C           -6.25415111370673       -1.90646658787154       -1.01796912502363
H           -4.80472817481715       -1.59970150715906       -2.56231940555229
C           -6.61229078702435       -1.63484684501383        0.29179140542124
H           -6.07497578457252       -0.61188903394493        2.09474354906850
H           -6.87511588407523       -2.54707589646189       -1.62658511570747
H           -7.51322196098196       -2.06184215615431        0.70705417800021
C           -3.31327651206456        1.43971646691311       -1.91503560542467
C           -2.11057341133477        2.02571743522236       -2.46567773414586
H           -4.07782784085992        1.35609242795226       -2.69121235052256
H           -3.69651820077611        2.07063150662186       -1.10923603649054
C           -1.08369474158882        2.46840624639089       -2.89162456168900
H           -0.19829396804294        2.87223189433658       -3.28326006085582
Cl          -1.53067625978640       -1.75807716830928        2.22002792716654
Cl          -1.94346368043659       -2.66694546712109       -0.70198332841792
O            0.35576217616345       -1.30090294789227       -0.44608375599252
O           -0.29343907235148        0.33599373744851        1.31310843201777
C            2.17512876414864       -0.01127373566472        0.28924115131426
C            1.43629223744751        1.19182511629027        0.02954264582742
C           -0.42020358151635        2.56847070970027        0.64881073502343
C            2.20015038656703       -2.41564387405325        0.41422014224858
C            3.50453257637069       -2.39869227790546        0.80767074946810
C            3.52548601302534        0.03815167933058        0.75895009781776
C            4.21104235753640       -1.18095640350581        0.98946513709520
C            1.96002687400376        2.23994920699695       -0.78650004962834
C            1.29560594954757        3.49006422138218       -0.79614228765602
C            0.12167635041555        3.63107270001144       -0.01491017870166
C            4.17811247543981        1.23883866540216        1.09153116936060
C            5.54058593599995       -1.15938470543033        1.42792262874958
C            3.06138541371495        2.05141867506377       -1.63902891824234
C            1.80228962834081        4.53335352921247       -1.58427951916119
H           -0.36517315373220        4.58982989320946        0.01455859394993
C           -1.66984921261223        2.64741090600262        1.47972413792623
N            1.58697193449801       -1.23369103369745        0.13350740161891
N            0.22957946275044        1.37880887470910        0.63091550710604
C            1.41473311997984       -3.67870835454473        0.19772422490525
H            4.01440034190173       -3.32384470752707        1.01159820825701
C            6.17586340031239        0.03409708778617        1.68341035492515
C            5.47901913851167        1.23233821187068        1.53732369661809
H            3.65470054284126        2.17679750802799        1.00051157645916
H            6.05500782653557       -2.09780066287116        1.57129038928263
H            7.20139085683761        0.04417602267076        2.01939054088584
H            5.96161406610105        2.16617147933229        1.78265351180660
C            2.90849496010690        4.33625711931479       -2.37743610245765
C            3.52555989291791        3.08507569525673       -2.41763522380948
H            3.54007196563727        1.08550221045848       -1.68162709004064
H            1.29975827758148        5.48906129186121       -1.56719979102225
H            3.29140085864890        5.14250490345703       -2.98477641042720
H            4.37049954006697        2.92615089186994       -3.07022239826859
H            0.37651263829838       -3.49152946362796        0.48026235306737
C            1.43671203997791       -4.03493882230423       -1.29385503573542
C            1.92643363983944       -4.84533703024934        1.03823129195404
H            0.86851369291045       -4.94598581902051       -1.45676880940140
H            0.97792378606306       -3.24311635355764       -1.87873999496080
H            2.45950526426305       -4.18745844343433       -1.63436518477856
H            1.21582722204630       -5.66479842277004        0.97307398745586
H            2.88730840216460       -5.20480970107706        0.67684892486465
H            2.02134827813498       -4.55823934701908        2.08256558657349
C           -2.54755471118744        3.84443894083823        1.12602036269689
H           -2.23156124159919        1.72959808258026        1.29428757528672
C           -1.28805348503595        2.67951466555257        2.96509411475291
H           -2.70389247881227        3.90933988008462        0.05184152629695
H           -3.51502544580353        3.73941712900956        1.61178307086735
H           -2.09956206206047        4.77324829747171        1.47273717842753
H           -0.65925360727631        3.54266004652683        3.17697430933508
H           -2.18611853496373        2.74496978950597        3.57388117965184
H           -0.75351412492722        1.77416699012555        3.23960663741165
