75
 energy: -118.566292976137 gnorm: 0.000741977851 xtb: 6.5.1 (b24c23e)
Si          -1.19514949747745       -0.10737397075506       -0.67085697135760
O           -1.91029367712843       -0.82380241892381        0.59180703888195
C           -2.91091664627321       -1.80909120795478        0.65738303068180
C           -4.25384799500770       -1.26138023869136        0.24961600003452
H           -2.64502998625200       -2.64139439225559       -0.00689493250632
C           -4.58011323895467        0.05652579323969        0.53629360267817
C           -5.17287596188533       -2.06357526043752       -0.41130678524319
C           -5.80621997723253        0.57104202826768        0.15641014813551
H           -3.85693736649769        0.67875905372016        1.04233753798538
C           -6.40278908335999       -1.55098046017744       -0.78265109686452
H           -4.91590068571849       -3.08531245957293       -0.64963624909557
C           -6.72078292383253       -0.23296392646128       -0.50181261986967
H           -6.04758625337651        1.60134348115926        0.37322789628753
H           -7.11096370366653       -2.17907982643579       -1.30279702560010
H           -7.67824717320099        0.16813059020922       -0.80020958946514
C           -2.94704833778172       -2.30723120332381        2.11545342349620
C           -1.63068948119353       -2.73195697203008        2.54057076746736
H           -3.65872369537459       -3.13213772004367        2.19594694964694
H           -3.27723227802221       -1.48601757910779        2.75643974202336
C           -0.52173412879785       -3.04360126478252        2.86522309240132
H            0.44138964133872       -3.32404356596295        3.17285193850965
Cl          -1.74154854433859        1.60749880677254       -1.70202076438978
Cl          -2.08267256756201       -1.36354546877128       -2.22042869028952
O           -0.39643503201997        0.86388790325893        0.64082074456606
O            0.33801659390912       -0.66230188757732       -1.19844402199999
C            1.77386877623597        1.33493605950382       -0.00990797846881
C            2.09091380958188       -0.04779051874001        0.22538286956754
C            1.50950342984264       -2.35683090749269       -0.12006902944038
C            0.18802037636678        3.09686732152999        0.32012412947044
C            1.11546251972782        4.02438389717663       -0.05808636074351
C            2.73725435239414        2.26719325368902       -0.49587671678266
C            2.39517876601190        3.64167481071126       -0.53156742541979
C            3.18735654570436       -0.43179597344142        1.05614131087970
C            3.43634254483428       -1.81336860553218        1.25632462834124
C            2.56772020946849       -2.75368918625397        0.64169264436824
C            3.97672471901634        1.86421295139643       -1.02304902433243
C            3.32267511988061        4.57005821650173       -1.02423010088710
C            3.97583021666336        0.49593077840918        1.76016932560996
C            4.50433767061733       -2.21587229824325        2.06697534451908
H            2.75265461583640       -3.80244040427241        0.79651474686962
C            0.59837587004587       -3.30836909081408       -0.84284170609643
N            0.52283818444746        1.78270296817132        0.28966806505662
N            1.31128845003773       -1.02726085572906       -0.31613557224982
C           -1.14935770953827        3.46802680297933        0.90002211193152
H            0.86812597289174        5.07130230805101       -0.02073398899489
C            4.54258122892958        4.15307852189391       -1.50232708632826
C            4.86140695344576        2.79449188126412       -1.51378221213648
H            4.22776490799893        0.81516440705437       -1.04524097843275
H            3.05752347004962        5.61667843560766       -1.03050065723096
H            5.25054563252881        4.87281413234674       -1.88434543993854
H            5.80808408089300        2.47080714074116       -1.91881994797051
C            5.29318310309551       -1.28409830049867        2.70301673522424
C            5.01093808528266        0.07325925628911        2.56142749674068
H            3.76656177735990        1.54998713873904        1.67328773046513
H            4.69520414401503       -3.27179744956923        2.18916757089155
H            6.11579034236336       -1.60180598499802        3.32533689027218
H            5.60617687986251        0.80197624273502        3.09042614090116
H           -1.80460119942746        2.59986676374981        0.82533474388995
C           -0.95319895375582        3.79421362331386        2.38567906513659
C           -1.80666195492940        4.62895033234420        0.15962877901037
H           -1.90823350243832        4.05491584746503        2.83436797635415
H           -0.54756126022416        2.93398316409245        2.91316626144239
H           -0.27065719186907        4.63287536890758        2.50781366917499
H           -2.81942545677900        4.76573931766215        0.52941190766295
H           -1.26400858646783        5.55842955268224        0.31176491884211
H           -1.85508874359199        4.41034724836589       -0.90311229155103
C            0.51819048130993       -4.68322875501569       -0.18689009942717
H           -0.40570291593551       -2.88070551665873       -0.85189768178316
C            1.06595589727844       -3.42756069225116       -2.29923071313311
H            0.24921186130495       -4.59251797288402        0.86263278354887
H           -0.25085013134839       -5.26739439126535       -0.68583963443967
H            1.45782640726201       -5.22342404611142       -0.27708303236937
H            2.08480381466239       -3.80867466302711       -2.34315096625172
H            0.41016678566533       -4.10660414501571       -2.83651022750279
H            1.02396660308764       -2.45972281890996       -2.79070014035615
