75
 energy: -118.568948904206 gnorm: 0.000316101797 xtb: 6.5.1 (b24c23e)
Si          -1.31034379978289       -1.14860569603112        0.78971886934350
O           -2.30407312979542        0.07730676290187        0.38138857133977
C           -3.18149970114331        0.34155350523194       -0.70092679191942
C           -2.45477331761851        0.07050937743984       -1.99701756759043
H           -3.36136961807416        1.42639988400407       -0.62340354532954
C           -1.37273551477041        0.89324130921231       -2.29253612065929
C           -2.74181916856668       -0.99145101052207       -2.84139931652794
C           -0.56970107501265        0.64531102987515       -3.38877855725087
H           -1.15789379044534        1.73331970333369       -1.64662284690153
C           -1.94171894569293       -1.23508720963488       -3.94552786200311
H           -3.57170176510960       -1.64746736227489       -2.63746950462401
C           -0.85033572945097       -0.42887216654772       -4.21634151478839
H            0.27447733200125        1.28957941571998       -3.59138227569258
H           -2.16693367569552       -2.07218918079235       -4.58955479620185
H           -0.22071068552036       -0.63485536975988       -5.06982904936494
C           -4.52327336674679       -0.37672436036528       -0.52255625906563
C           -5.16989454692776        0.09334214448652        0.68427123197139
H           -5.15686092045895       -0.16630252028267       -1.38787832172419
H           -4.35717238984215       -1.45226825262607       -0.44167454157733
C           -5.65580051740453        0.51637804809141        1.69255645888117
H           -6.10708873885544        0.85816617550649        2.57532346477826
Cl          -1.41084692354117       -2.16876968286045        2.57591277857623
Cl          -2.25564044399862       -2.74511989887872       -0.30852283967509
O           -0.01139728280799       -1.30830002786223       -0.32449547362457
O           -0.30801007887464        0.02442330236722        1.75762368539814
C            1.87134350566541        0.00537233286795        0.18130157883186
C            1.04128079489755        1.17418063950622        0.26646924687361
C           -0.73588306271726        2.28844537608491        1.42663670737563
C            2.02168242670249       -2.38550390646248       -0.06177580435090
C            3.37891354889981       -2.32906767245573        0.04156610193988
C            3.28903103757441        0.08799070500441        0.34795144200641
C            4.05764829929880       -1.09885313444198        0.24625555980445
C            1.29747961081014        2.34773774320468       -0.50456543135914
C            0.53827715617995        3.51394037936081       -0.23822936779498
C           -0.44958216648013        3.45565418391738        0.77826906926150
C            3.94988198395859        1.27935643304869        0.69772287373983
C            5.44911558801956       -1.04029769044168        0.38962021694169
C            2.20022392266273        2.35997763066095       -1.58198906822181
C            0.76448207579712        4.67139189341975       -0.99625030866312
H           -1.00311257020529        4.34894643164017        1.01012492811827
C           -1.76542934257234        2.15706327606109        2.51432729791187
N            1.31337696624496       -1.22441049173756       -0.02089138206601
N           -0.00412978821520        1.18347702129437        1.13864591734223
C            1.25184168551524       -3.65657240945889       -0.28891547811722
H            3.95880955834434       -3.23387934590952       -0.00862307517482
C            6.07591180276572        0.15164798776852        0.67265754217694
C            5.31650591201684        1.30701422680899        0.84919426115380
H            3.38099447957181        2.18207304618565        0.85204050735054
H            6.02059194362456       -1.95024551047372        0.28358896740719
H            7.14899596339762        0.18995048749961        0.78117961551146
H            5.80377376256076        2.23297981994802        1.11432529923902
C            2.38968000608021        3.50380348105548       -2.32053458281654
C            1.68492092310304        4.66940313112552       -2.01780089481854
H            0.19463863117443        5.56042749424927       -0.77061939048218
H            2.74191077479745        1.46038120323900       -1.82955016133495
H            3.08438718568685        3.49818382073052       -3.14676227467134
H            1.85148220725494        5.56324153967738       -2.59952853219595
C            0.91302947937462       -3.78339598730727       -1.77985983031253
C            1.99457373833707       -4.89593132660235        0.20219304909665
C           -1.04738288494477        2.15300907358479        3.86973020949022
C           -2.83163271839411        3.24634518628553        2.46833721216399
H            0.34016003185648       -4.69134385306641       -1.94458955168862
H            0.31081571014225       -2.94084112575047       -2.10937733772677
H            1.82453775070773       -3.82527010573196       -2.37358650226590
H            1.32037141363419       -5.74756095294857        0.16945466732003
H            2.85123791975679       -5.12131929039320       -0.42893987863877
H            2.33018463107353       -4.76572477292661        1.22819458815863
H           -0.35608807771512        1.31657419952947        3.92972193014231
H           -0.49666300364239        3.08144524614812        4.01293560269480
H           -1.77574599435100        2.05162059226944        4.66957970960094
H           -3.28380912335765        3.30393280684434        1.48132241932385
H           -3.61395710798203        3.00696603926875        3.18350709599214
H           -2.42009439922455        4.21811300218156        2.73299555489377
H            0.31223109212063       -3.58868147931195        0.26510822918571
H           -2.25986348567867        1.19150370522370        2.38723457588803
