75
 energy: -118.567467286414 gnorm: 0.000946119001 xtb: 6.5.1 (b24c23e)
Si          -0.20452754621974       -1.62851050148124        1.13276603940021
O           -1.57669097511658       -2.06805724609120        0.39384635963715
C           -1.99011045613037       -2.03444569227320       -0.95827772232089
C           -3.15269973061055       -1.08099495668845       -1.06663269932740
H           -1.16546111936648       -1.67992803606291       -1.58072324920446
C           -4.29844931243372       -1.28711631860676       -0.30797605558556
C           -3.07436121179714        0.03662245961803       -1.88603796293780
C           -5.36140112954903       -0.40674649870601       -0.39548482186569
H           -4.34582625030268       -2.13067840402561        0.36320810933028
C           -4.13574423061320        0.92135004728791       -1.96915508880445
H           -2.17700131563988        0.21506494066717       -2.46201938582893
C           -5.28506960558875        0.69583307698700       -1.23126741183679
H           -6.25060963247336       -0.57733774300602        0.19328710593033
H           -4.06391189281794        1.78771903258400       -2.61049688082996
H           -6.11659386152601        1.38199562894805       -1.30038547793513
C           -2.36129390798850       -3.46297912590902       -1.39046165012321
C           -1.18684465767936       -4.30800821053843       -1.35501879979546
H           -2.77879157725879       -3.43547983926154       -2.40051288708284
H           -3.10908142245799       -3.86375816588600       -0.70300490018644
C           -0.18039577067947       -4.95278234112192       -1.29483952415758
H            0.68132710249291       -5.54629947744754       -1.22313820738923
Cl          -1.03690448856587       -2.22865152682691        2.98792514099815
Cl           1.54271882123945       -2.69632522079777        1.43952664065956
O            0.46534843578492       -0.99547849749132       -0.50418095134324
O           -0.04587911878487       -0.03352733164555        1.74310651745973
C            1.79363397493904        0.84499140957840       -0.08914055119986
C            0.58845239212503        1.58584010491176        0.17028598935801
C           -1.54090609098977        1.69049873564921        1.28971562697237
C            2.73331719766729       -1.15222977634608       -1.01552369941924
C            3.97691929954600       -0.58834906850004       -1.00429398679095
C            3.08995916504460        1.42571145880328        0.02682273980908
C            4.20811133314252        0.68674621778640       -0.43194764705464
C            0.31820742491430        2.82034708934617       -0.49494085475533
C           -0.90343770746597        3.48534555124105       -0.22030905134635
C           -1.81299230603380        2.88334529592871        0.68936124683455
C            3.30590082611776        2.66291623099599        0.65825071175656
C            5.49229711744401        1.23628515411548       -0.31058486739780
C            1.16308949350207        3.35998388675633       -1.48160897071666
C           -1.19596161274051        4.69348868404828       -0.86322907607287
H           -2.74175637732055        3.38632877794814        0.89209477384930
C           -2.44669654369760        1.03494066731268        2.29406635514867
N            1.69006813839299       -0.44351812515154       -0.51676372004054
N           -0.35340635474006        1.08445872606897        1.02315642010579
C            2.43919187543312       -2.46901917657995       -1.68135831352542
H            4.81057356257490       -1.13031003715657       -1.41674121860257
C            5.67368714634836        2.46376241746801        0.28125755344325
C            4.57741245037929        3.16961806827983        0.77969529607960
H            2.46435297180961        3.21033747806423        1.05364174564566
H            6.33617704170781        0.67341923028905       -0.68047012218328
H            6.66561999204555        2.87874897884469        0.37659151279469
H            4.73089472199241        4.11807279642009        1.27153690106843
C           -0.32557813373217        5.22623472178606       -1.78769284108622
C            0.84604020989294        4.54337122811780       -2.10754539723843
H            2.06920300042218        2.84226183496862       -1.75279128159857
H           -2.12036952244187        5.19776898484221       -0.62428259304137
H           -0.55662380534049        6.15965840103493       -2.27781929218246
H            1.51098490453403        4.94223261341227       -2.85860101168093
H            1.46715805281727       -2.82572054338218       -1.33430086674257
C            2.34893364503887       -2.23397810740891       -3.19447514855412
C            3.48082096587830       -3.53447212583613       -1.35269679693041
H            2.08158079144109       -3.16160378616778       -3.69377646804387
H            1.58794855784024       -1.49090522708704       -3.42382109307683
H            3.30243839921466       -1.88662995499470       -3.58739683438653
H            3.18063140036472       -4.47905104976579       -1.79861703949539
H            4.45940483779605       -3.27423545149518       -1.74788762521515
H            3.55143540297019       -3.66283906994481       -0.27635133434741
C           -3.88488616750667        1.53787547859576        2.21399155529757
H           -2.44935013820250       -0.04099890419323        2.10135013656363
C           -1.88674076177610        1.26115321372170        3.70489119627485
H           -4.26161627362892        1.48475163755630        1.19571542092096
H           -4.51224903962803        0.91256407344313        2.84351550104920
H           -3.96330910802894        2.56141271880983        2.57427285179743
H           -1.81739743710689        2.32641140806045        3.91905496789890
H           -2.54469299209589        0.79549032208854        4.43257570431631
H           -0.90465106679839        0.80948275553006        3.80560725891303
