75
 energy: -118.481515675736 gnorm: 0.000424723765 xtb: 6.5.1 (b24c23e)
Si          -0.78320887280908       -1.22368489124665       -0.80397201675820
O           -2.51903744138239       -1.19570324063011       -0.25913518458078
C           -2.98148228699809       -1.16735330309093        0.90730188973424
C           -4.29331372507484       -0.69422264795194        1.20188200424025
H           -2.35792285631822       -1.50609631821066        1.73588396149745
C           -5.12332669383588       -0.19946533118502        0.17900264314303
C           -4.77058900225482       -0.70204558461264        2.52397417607345
C           -6.38138749541168        0.27390975425044        0.47652367898358
H           -4.74511957705164       -0.20415981107572       -0.83276397942901
C           -6.03218744251869       -0.22646168425216        2.80691476355570
H           -4.13742531841579       -1.08653545522291        3.30941419705364
C           -6.84065136034085        0.26416797494671        1.78844615179295
H           -7.01617710939323        0.65294213539671       -0.31085900641408
H           -6.39704432009789       -0.23455220053492        3.82343757505022
H           -7.82810743113870        0.63630373727922        2.01725585120863
C           -3.63936359767996        0.57497626109850       -2.99326568265725
C           -2.42133640128325        0.27102150581664       -2.66022516162427
H           -4.11815730212651        1.48407885529979       -2.66386438199547
H           -4.21304635481471       -0.06250859288420       -3.64688622743825
C           -1.23300331062034       -0.06097066271950       -2.28234544263325
H           -0.38877301199298        0.24715971706468       -2.88443712074137
Cl          -0.19711668988948       -2.45539276781788        0.95808770967900
Cl          -1.14919370142492       -2.99409792690244       -1.96540608619621
O            0.95869303764079       -1.01807889865831       -1.31931041074804
O           -0.51915324244784        0.18844129182720        0.42147348432120
C            2.18348324015908        0.05139212349726        0.28740697294367
C            1.46401981453548        1.26890135535326       -0.05292413538528
C           -0.62618352687511        2.42089026602964       -0.16082749923960
C            2.60371401910968       -2.23940325885034       -0.22901595686441
C            3.59841163178279       -2.27940317276267        0.70640672323259
C            3.17289167204416        0.03658606950145        1.30562744125562
C            3.89739600453510       -1.16345667854744        1.51964537328052
C            2.15898459842361        2.44091098751636       -0.45648964893646
C            1.41481046397763        3.62743230247381       -0.67934660542144
C            0.01030003129926        3.57943083333084       -0.49624675133298
C            3.41371733884359        1.13530998778320        2.15382552664435
C            4.87730005509184       -1.20710813700055        2.52502934918423
C            3.54537220734795        2.45876383937889       -0.70283707546256
C            2.07853797174021        4.79753024505187       -1.07198432940383
H           -0.55785233993663        4.48209901177087       -0.64050212658119
C           -2.10494320334876        2.30770051257460        0.09019767316791
N            1.92444603983847       -1.07624907162114       -0.40435368327449
N            0.11130996106601        1.29385429554407        0.04009891377119
C            2.27977950190607       -3.37465123708282       -1.15490752879054
H            4.15778842532397       -3.18812592222442        0.84832921980130
C            5.11518831899270       -0.11048822336571        3.31472265019475
C            4.36940514396352        1.05888910535294        3.13473672315932
H            2.83726403231044        2.03898993806169        2.03083728108657
H            5.43268460403367       -2.12173569536466        2.66868733521689
H            5.86793538001303       -0.14965045479457        4.08745850418329
H            4.54437013892118        1.90679063989816        3.77954573736646
C            3.43939379106693        4.79608817512553       -1.26948465428810
C            4.16812392596152        3.61796804558204       -1.09700378132615
H            4.11915047597245        1.55327060292305       -0.58294467866332
H            1.50129547958491        5.69770737247061       -1.22163819582732
H            3.94531311287878        5.70020345384897       -1.57182396959822
H            5.23168075027126        3.61663949004725       -1.28117234814691
H            1.21317139992396       -3.34540079814415       -1.38403166138616
C            3.04269389693926       -3.16129118362280       -2.46843025253771
C            2.59362391798542       -4.73866160560533       -0.54945864378905
H            2.80170584512989       -3.96377467819445       -3.15951028723718
H            2.75242113270870       -2.21901480240353       -2.92654974812782
H            4.11793814140658       -3.15638105400158       -2.29404717381875
H            2.17925139419421       -5.51243024854665       -1.18973870816084
H            3.66567573507684       -4.90606564150534       -0.46520592038688
H            2.13545338760991       -4.82651760256420        0.43194118795170
C           -2.91155959996304        3.42112130608288       -0.56897338047817
H           -2.43555423842898        1.35258897091645       -0.32528860470248
C           -2.35346407666735        2.28593735984203        1.60388483383307
H           -2.67248032342173        3.49409780921410       -1.62689432456447
H           -3.97125721821540        3.19957504615276       -0.46700081429389
H           -2.72425013912509        4.38105658954452       -0.09278305880174
H           -2.00439110517227        3.21128369905886        2.05897673731940
H           -3.41705682858794        2.17675845982586        1.80166485313577
H           -1.83354787454866        1.44858665646537        2.06202012499025
