75
 energy: -118.567309965967 gnorm: 0.000454947422 xtb: 6.5.1 (b24c23e)
Si           1.16921445196893        0.28988412948913       -0.71114733055186
O            2.05019519747831        1.02929872490900        0.43324428938310
C            3.43908553399369        1.28882535543535        0.38097794359456
C            4.18890211460988       -0.01841761662331        0.41937085079648
H            3.66289739926839        1.81414174659891       -0.55626578358344
C            3.92419407721071       -0.93111398706019        1.43273468848423
C            5.09394836849179       -0.35138497897531       -0.57735972393071
C            4.56209000066254       -2.15780181641695        1.45197133985969
H            3.20065996796562       -0.68023671054949        2.19444079018683
C            5.73208496947966       -1.57951478110333       -0.55675730988529
H            5.28509933746817        0.34806813264744       -1.37781437234300
C            5.46800951515851       -2.48402049171450        0.45705825446686
H            4.35110018681070       -2.86175695750182        2.24443925584340
H            6.43006510343990       -1.83395698220655       -1.34039534354027
H            5.96189883238291       -3.44465834949130        0.46809839920772
C            3.80767347809673        2.17961300396012        1.57683678030603
C            3.28274937049757        3.51897402136015        1.42597476485159
H            4.89738051753311        2.22349876020399        1.65595413032676
H            3.40254843828288        1.73288943072088        2.48751025759931
C            2.84782852554581        4.62477178287546        1.28702092795653
H            2.47737062255970        5.59964401867504        1.17783748589502
Cl           1.54807812218419       -1.56114048149588       -1.58717597078252
Cl           2.05797620231315        1.31326564036672       -2.41174742906599
O            0.29568815778440       -0.49388388066617        0.68473422358675
O           -0.29293166774087        1.00391850802706       -1.21472949360028
C           -1.87876405901578       -0.90435226618099       -0.00224962657534
C           -2.14753736189556        0.49881553896518        0.13868545838679
C           -1.43416843133772        2.76739683925921       -0.23665992256332
C           -0.40122259673937       -2.71188015921249        0.52573797161031
C           -1.36117139155221       -3.61869217594605        0.17986505542516
C           -2.85929732677558       -1.82364548264084       -0.48169452259993
C           -2.59233014724927       -3.21156175525245       -0.39107725741433
C           -3.28817805987844        0.96479093190218        0.86519628210366
C           -3.49962320547845        2.36215227633761        0.97583027825585
C           -2.53722454967089        3.23927204073227        0.40935012855459
C           -4.03745908655035       -1.40052664260807       -1.12116204226806
C           -3.54107129129222       -4.12774004808155       -0.86671776802355
C           -4.16184088173264        0.10461193276106        1.55434893310679
C           -4.61716629584695        2.84354106234798        1.66810270395402
H           -2.68456786069563        4.29953150205230        0.51670987859040
C           -0.39558936243205        3.64974034958405       -0.87097154448640
N           -0.66753637935793       -1.38851232628405        0.38941185280052
N           -1.28686863112641        1.42298063268115       -0.37913475841253
C            0.89870535355110       -3.10751917394669        1.17107376747710
H           -1.17068232274515       -4.67033123464080        0.30788988721588
C           -4.70403176798075       -3.68811266678717       -1.45320176476907
C           -4.94208314967130       -2.32012804293502       -1.59488785451773
H           -4.22498328907155       -0.34508155018542       -1.24317560118512
H           -3.33586096072486       -5.18370237139062       -0.77438713215628
H           -5.42851239187108       -4.39863124624868       -1.82129565207827
H           -5.84086844767973       -1.98163507654122       -2.08734459629579
C           -5.48990925887711        1.97492904738305        2.28297130241923
C           -5.24299496947935        0.60397153249813        2.24263300590113
H           -3.98342596127606       -0.95850350367842        1.54678461478919
H           -4.77692417332246        3.91023361784071        1.71868249346214
H           -6.34992574513969        2.35275915601743        2.81442436483562
H           -5.90260203769586       -0.07482424970650        2.76158195224489
H            1.59925593349909       -2.27842305780057        1.06603230596002
C            0.64648560731668       -3.33874072167627        2.66577874857254
C            1.52305924129295       -4.33843088265276        0.52003612278918
H            1.57872058947752       -3.60169162245737        3.15885569263279
H            0.25180214006637       -2.43818961334407        3.13093697986615
H           -0.06563322302984       -4.14811815716021        2.81451742983685
H            2.52093333183258       -4.49053028273554        0.92269929837203
H            0.93799353853703       -5.23420637086400        0.71303368145240
H            1.60709005320997       -4.18787990730278       -0.55222111698256
C           -0.33980419733545        5.04064161059911       -0.24650515288361
H            0.58091961358794        3.17766928977475       -0.73257847869225
C           -0.66849812447752        3.75294903034847       -2.37700978372436
H           -0.24153803633948        4.97522625781677        0.83432015846651
H            0.52448379557162        5.56633430088600       -0.64317918903870
H           -1.22598702542515        5.62159232225118       -0.49261843250023
H           -1.65189363292813        4.18450930278133       -2.55583517904179
H            0.08500257912822        4.38335603752058       -2.84018169041542
H           -0.61814896681701        2.77348475444660       -2.84282190751747
