75
 energy: -118.568288442028 gnorm: 0.000858141092 xtb: 6.5.1 (b24c23e)
Si          -1.11600281788657       -0.55533905180715       -1.26114875038681
O           -1.97324833172402       -1.55305036086240       -0.30878626387629
C           -2.48691005490873       -1.35737666689987        0.98795324700426
C           -3.65618026043569       -0.40537333797609        0.97300187682670
H           -1.69888888997742       -0.94101895745683        1.62598848997992
C           -4.44191462280987       -0.26076947077301       -0.16141047956972
C           -3.94774872619145        0.34757368037883        2.10395926378439
C           -5.48976180687108        0.64312229066009       -0.17337482544195
H           -4.21867951791099       -0.84704731830336       -1.03937412983014
C           -5.00242192781656        1.24219529011115        2.09440681073206
H           -3.33884726671001        0.23563508699716        2.99029390533622
C           -5.77112987026545        1.39725592303523        0.95257035984282
H           -6.08605334152825        0.75798474593612       -1.06595161653209
H           -5.22152845407150        1.82420328555421        2.97827093654000
H           -6.58739628465673        2.10457171473423        0.94194544812713
C           -2.89420593500287       -2.74036057001684        1.53362279028480
C           -1.73033189300385       -3.45988707436867        2.00272578834520
H           -3.59876184825141       -2.61222673284410        2.35946846674502
H           -3.38174776544422       -3.29635774846026        0.73013186832131
C           -0.72976992308157       -3.98197263491285        2.40184789386448
H            0.12381544957055       -4.46822205106227        2.77004201243159
Cl          -1.66003024505935        1.22598972354317       -2.17552760524914
Cl          -1.64274164772077       -1.71816522532391       -2.96093254351291
O           -0.57841283416559        0.38070977109984        0.26975640369582
O            0.52810338557855       -0.90160249403032       -1.56728018530843
C            1.57516761526833        1.14702486525864       -0.07448280087696
C            2.03060717325837       -0.20691521993406        0.09348497232194
C            1.73492953516903       -2.53821854871262       -0.44264874069492
C           -0.24107314247297        2.68346781021394        0.20519086708237
C            0.60151582455159        3.73934504271068        0.00832405650365
C            2.46051683076036        2.22177806200945       -0.38106544095195
C            1.95915046301366        3.54651846603689       -0.34795733737096
C            3.07475451172133       -0.53564417530213        1.01141639005286
C            3.45222562003559       -1.89545929213829        1.15205370738980
C            2.74943662861612       -2.87590374513948        0.40204562559832
C            3.78456001134807        2.00852280907768       -0.80250931076604
C            2.81190651735124        4.61350191933625       -0.66420103402403
C            3.68280813720804        0.41401093586444        1.85215065434308
C            4.47350350458949       -2.24345924587346        2.04371123804158
H            3.02508939951821       -3.90891319776448        0.52214097571038
C            0.98111854910723       -3.52702350673753       -1.28703452615535
N            0.25441493412823        1.42409368466343        0.11379899657940
N            1.42458558889534       -1.22268249947361       -0.58955242287491
C           -1.66889003668727        2.85129861953042        0.64914716635532
H            0.22445459071003        4.74375019685084        0.09718897300315
C            4.11366575363235        4.38013452266796       -1.03934055171824
C            4.59363533556811        3.07212939068154       -1.12279380910868
H            4.16080833672284        1.00022308438931       -0.87934771385205
H            2.42392526176027        5.62002482504242       -0.61811633557904
H            4.76368003530846        5.20585788252804       -1.28604289972073
H            5.60695427639572        2.89437146613564       -1.44929564970077
C            5.08867899240433       -1.28465875552223        2.81670637073849
C            4.67344621029790        0.04272068671366        2.73135877009949
H            3.36937421992006        1.44476828448326        1.80995250390548
H            4.76589398854185       -3.28019644079739        2.11975629921654
H            5.87555275291718       -1.56063742161014        3.50193117398955
H            5.12877285781185        0.78830538513754        3.36541132674562
H           -2.19366553257641        1.90743153087016        0.49320413323290
C           -1.67515355479228        3.15826719108649        2.15132941494357
C           -2.40463694655220        3.93573231154670       -0.13252756761626
H           -2.70092409232701        3.24283130226637        2.49976163835320
H           -1.18637963805244        2.36186094313690        2.70851245675792
H           -1.15683612004839        4.09319303246937        2.35457046141835
H           -3.45517840195510        3.92403274888131        0.14648600882716
H           -2.00492930377113        4.92357490499751        0.08223414129180
H           -2.32899961366279        3.74245379798399       -1.19849482886333
C            1.01155783637339       -4.94409420459912       -0.72354744503395
H           -0.06316230566998       -3.20980731294962       -1.33254839250956
C            1.54660101583388       -3.50436590641816       -2.71298289876798
H            0.66754027623003       -4.95436883102545        0.30716919324825
H            0.34285067384977       -5.56876504172131       -1.30977208149493
H            2.00863864479626       -5.37522294709479       -0.78030232162074
H            2.59635142999134       -3.79327458791805       -2.71035664187590
H            0.98871523714928       -4.19882001274220       -3.33415717598810
H            1.44864554816167       -2.51395962605023       -3.14769275073715
