81
 energy: -124.884118200189 gnorm: 0.000347714609 xtb: 6.5.1 (b24c23e)
Si           0.18480100000784       -1.50518119929043        1.33632314419063
O           -0.88923507891860       -2.51904107357810        0.64556578433620
C           -1.26632429844993       -2.74229738538775       -0.70099255140339
C           -2.25341135156385       -1.68193911517951       -1.12693271307086
H           -0.37897417148950       -2.67991283327210       -1.33709441322801
C           -3.55409099921758       -1.68328636234544       -0.63892500403876
C           -1.85905095622135       -0.65653169937085       -1.97715619635566
C           -4.43981470147442       -0.68231034940094       -0.99934611295324
H           -3.87255396713468       -2.46426009910689        0.03397472792670
C           -2.74135863591193        0.34816792703808       -2.33293218016886
H           -0.85149145621623       -0.64077577321953       -2.36547856368200
C           -4.03546400249968        0.33809592846003       -1.84279022950023
H           -5.45172212948833       -0.70006828342239       -0.61991329202798
H           -2.41753591060605        1.13831475344914       -2.99481501226990
H           -4.72556822893470        1.12117442517985       -2.12024391153297
C           -1.83897620635064       -4.16647130334017       -0.79341127939045
C           -0.76569982798233       -5.13733207660510       -0.80702899557494
H           -2.43454944027862       -4.26052716755076       -1.70554725321179
H           -2.47309618788725       -4.34981434182720        0.07606244797128
C            0.15827920344275       -5.89712104144038       -0.82543837569118
H            0.94987888232295       -6.58495305111745       -0.82788443064093
Cl          -0.49880571572226       -2.18940105776196        3.22470447255455
Cl           2.18212570445115       -1.52582899845781        2.01747092443389
O            0.76066958602958       -1.03914878937374       -0.33126959095894
O           -0.33702638851203        0.06628826562236        1.73164442475252
C            1.44822642944702        1.13217033310012       -0.15718386331049
C            0.06209509690618        1.53940965236529       -0.04839490170328
C           -1.98494658136901        1.63864206481427        1.20899380769302
C            2.99537747736308       -0.54851287088333       -0.88950204309578
C            4.00874477910555        0.36524508395321       -0.81434480957949
C            2.48369871648517        2.10180289288332       -0.06177421604259
C            3.80748048541146        1.68678257496332       -0.34066017815022
C           -0.41811180630484        2.52090252703754       -0.96345078533299
C           -1.71939669968735        3.04062784710653       -0.77292672769481
C           -2.44808758953019        2.60619472733913        0.36455434471380
C            2.26355407807494        3.41265527721953        0.39768191046572
C            4.86183443591175        2.59672141053336       -0.19074578712341
C            0.30387526840553        2.91888784914493       -2.10360558214199
C           -2.23713338206964        3.97163018150601       -1.67911606779192
H           -3.39972754507863        3.07126298294998        0.54216413802890
C           -2.73363919421414        1.25690536364515        2.47930795618255
N            1.76303071913150       -0.15155614778957       -0.46423562437777
N           -0.77597422095250        1.06904019972346        0.92127981468537
C            3.15855027610540       -1.88806666837748       -1.59762662143676
H            5.00550664545824        0.09655557980865       -1.11219074873037
C            4.61910166908831        3.88039517300914        0.23969550130805
C            3.31703614102038        4.28326402652230        0.53984133201108
H            1.26249029707985        3.72999179658376        0.64551645751916
H            5.86672580977057        2.27301512137480       -0.41698215059296
H            5.43529340127370        4.57712936201738        0.35571301491181
H            3.13737678795359        5.28606624879637        0.89668017819433
C           -0.23069903975994        3.82999206749958       -2.98521795337456
C           -1.49826254660980        4.36839070551137       -2.77221188881443
H           -3.22545712282745        4.37177905910484       -1.50887956146502
H            1.28142516916516        2.50324421698466       -2.29214231922412
H            0.33558792516723        4.12362641751298       -3.85621085504722
H           -1.90236019559296        5.08562463954397       -3.47028503213546
C            2.22948364041361       -1.85877296601910       -2.82353760975063
C            4.59472245428499       -2.06846030113550       -2.10626963044839
C            2.83750789698888       -3.10626655747076       -0.72476991847735
C           -3.29317563379497       -0.16621243052066        2.38394497531321
C           -1.80385771200965        1.39113992549340        3.69686433401153
C           -3.92527024419537        2.19724522674016        2.71349389424910
H            2.33567131891423       -2.78298163080101       -3.38604821133199
H            1.19046903711632       -1.76493856545790       -2.52415986004449
H            2.48209133750440       -1.02380345380108       -3.47591144290071
H            3.07231089697880       -4.01196809819352       -1.27951712597437
H            3.43244224502875       -3.08673859470615        0.18351189332732
H            1.79079863531303       -3.15164706432916       -0.44840537669521
H            4.65969231417317       -3.01234424864463       -2.64217758147546
H            4.88045655488718       -1.27677352888540       -2.79498060493258
H            5.29898502022287       -2.10492206129001       -1.27935809243384
H           -2.51375435375831       -0.90008039401251        2.22589847163381
H           -3.79507964681791       -0.41548083901449        3.31520241510811
H           -4.00977811062072       -0.22981526199048        1.56890710168352
H           -1.06431378402585        0.59902884834902        3.72494616759695
H           -1.29605804596255        2.35427808189000        3.68514622438745
H           -2.39450245435761        1.32537618476212        4.60663686389976
H           -4.67033651238109        2.10375912731284        1.92703757563409
H           -4.40304201869406        1.92267250440060        3.65061317786165
H           -3.60559124092457        3.23392110311582        2.79108980074803
