81
 energy: -124.882486687698 gnorm: 0.000334828171 xtb: 6.5.1 (b24c23e)
Si           0.91140748352360       -1.19086168296267       -0.51421488568078
O            1.82484578272847        0.00673989097915        0.11519014986652
C            2.75214868081053        0.24377451397332        1.14265234606307
C            4.16552540776031       -0.17076513473414        0.79370543247293
H            2.73611554960414        1.34198039984356        1.25518411135692
C            4.46749274035034       -0.97226019210849       -0.29580502342457
C            5.20540528418406        0.29060172957115        1.59622261546743
C            5.77892297186746       -1.32811302329678       -0.56351431365467
H            3.68492234261001       -1.32687855365707       -0.94523843830440
C            6.51310193790816       -0.06677701394207        1.33079809335263
H            4.98895637058256        0.94146086394190        2.43216642543990
C            6.80404981525229       -0.88384108074803        0.25058390498338
H            5.99299263683131       -1.95824810276200       -1.41350774650365
H            7.30768632049000        0.29515552645719        1.96701878221118
H            7.82563436785911       -1.16650237162987        0.04395259806983
C            2.33132047350163       -0.36572223535001        2.49546156319464
C            1.02153539683524        0.09701671975988        2.89201074985199
H            3.06426278684204       -0.07578497000478        3.25126808182854
H            2.32208465569214       -1.45346181271769        2.41384146007386
C           -0.06479360300697        0.49596961430831        3.19651958780396
H           -1.01214422181913        0.83591524887689        3.49012658261413
Cl           1.26453389032752       -2.14723381912246       -2.32420570285370
Cl           1.74567975133397       -2.85528642309697        0.59464855725066
O           -0.52020286525370       -1.50613273762398        0.35542167075213
O            0.09929374205591        0.03246158167462       -1.54656899770228
C           -2.15767124113047        0.11593472077810       -0.14374955391405
C           -1.20836313003449        1.20288233946586       -0.08948952390209
C            0.63703673648008        2.29628371891345       -1.15368936675621
C           -2.74055183405647       -2.19627070418945        0.17481790728658
C           -4.05717549143667       -1.88091423338895       -0.00346704186836
C           -3.52115400149949        0.44731185787409       -0.41462339005444
C           -4.49562903478706       -0.57208762433094       -0.32729454759126
C           -1.42240798620524        2.30852276774866        0.78049080440482
C           -0.52490330225537        3.39889791622695        0.69497451090167
C            0.45923738829231        3.37087271088007       -0.32170375015755
C           -3.92843779863334        1.72328870849045       -0.84711597884924
C           -5.84165675683112       -0.27720623854243       -0.57251606549881
C           -2.40863707914095        2.32233621730880        1.78355992499773
C           -0.65723813760348        4.47715303444168        1.58076638852782
H            1.08728421531202        4.23882356103901       -0.42864728733884
C            1.64199626742683        2.41773503280880       -2.29619658308647
N           -1.81724365806209       -1.18978278132952        0.07648185436777
N           -0.15479516170343        1.21452100267233       -0.95029082509480
C           -2.30869463423250       -3.61972513537823        0.50323226426735
H           -4.81198866089008       -2.64087359641259        0.07367576323477
C           -6.22146615346363        0.99434676265886       -0.93832522111292
C           -5.25534112107814        1.98698865592892       -1.09493083918800
H           -3.19670581926246        2.50269109567779       -0.98902882395185
H           -6.57426244892956       -1.06439137985628       -0.47511420149374
H           -7.26039990209598        1.21967888673521       -1.12432029707652
H           -5.54931133492158        2.97262016947021       -1.42253308062041
C           -2.51763018649318        3.39295916502500        2.63863025311861
C           -1.64528426610981        4.47748306251018        2.53680485615832
H            0.02769575113668        5.30782738351903        1.49746847662396
H           -3.08307334959625        1.48519299812650        1.88016230185566
H           -3.28015134370626        3.39140312900399        3.40325464675487
H           -1.74507444288056        5.31112382924897        3.21513337723884
C           -1.58367523942750       -3.65956597314213        1.85706317508526
C           -3.52181940976454       -4.55509535178269        0.61796042589713
C           -1.42094797503849       -4.17317299473363       -0.62022895146639
C            3.05765821968468        2.52442877788583       -1.71224383000375
C            1.63300043550298        1.28367178576811       -3.32266932060553
C            1.30018452219402        3.70893744027001       -3.06668697324316
H           -1.35798339037453       -4.69172892205768        2.11092663618087
H           -0.64955075590322       -3.11147261434649        1.83459826756832
H           -2.21887163591084       -3.24116713007979        2.63594075723214
H           -1.28865440294320       -5.24298708739374       -0.48228054618123
H           -1.88340122165971       -4.00500453033877       -1.59112035282422
H           -0.43766079830879       -3.72399168571111       -0.61956937849035
H           -3.16531588042307       -5.55005174098832        0.87293189905139
H           -4.20099097121296       -4.23676221638894        1.40553412532711
H           -4.06082734734720       -4.62906315941723       -0.32363459647810
H            3.32645229713021        1.59865236507863       -1.21209511924755
H            3.77043629070417        2.69799296650959       -2.51471557853210
H            3.13742279576462        3.34090475379450       -0.99883853229794
H            2.02012061198785        0.36101788565606       -2.90824806390383
H            0.63335293819670        1.09806624038314       -3.70565200401076
H            2.27123316784854        1.56537073336848       -4.15812884841983
H            1.41504179820361        4.60010207024933       -2.45765211265803
H            1.96473269964055        3.80393694627928       -3.92161585314480
H            0.27658247095824        3.67188147236844       -3.43334078154905
