81
 energy: -124.885114437954 gnorm: 0.000338642986 xtb: 6.5.1 (b24c23e)
Si          -0.97675765679639       -0.65774215448355        0.09756198686445
O           -2.43132452106191       -1.35161140564626        0.17673432606581
C           -3.62327433676204       -1.19927822892918       -0.55642247148419
C           -4.50389833921109       -0.16940912966549        0.10302299230525
H           -3.38925904806926       -0.88217365126111       -1.57844594326921
C           -4.52556465954810       -0.05684502938458        1.48688183561317
C           -5.29504512491405        0.67541053648780       -0.66302237498795
C           -5.32431245644132        0.89394151422306        2.09652885291334
H           -3.89746213921775       -0.70643248124813        2.07777258684606
C           -6.09814838903178        1.62152690445955       -0.05157083637030
H           -5.27205102687314        0.59590652335300       -1.74019892017668
C           -6.11317980790745        1.73358277552244        1.32860072392275
H           -5.33015104496355        0.97938257997917        3.17332638495322
H           -6.70884810887483        2.27778942606392       -0.65436487643928
H           -6.73674822302005        2.47660638948373        1.80441206589178
C           -4.32141374968452       -2.57088216292946       -0.59718786819446
C           -3.56444936286720       -3.49840157335351       -1.40910093455432
H           -5.32547225003585       -2.44730120874620       -1.01127476265339
H           -4.39813438397502       -2.95280462116839        0.42358966705134
C           -2.90097750894821       -4.22265975960497       -2.09219523459169
H           -2.33542984822001       -4.87423204592557       -2.68817230615134
Cl          -1.36257970637586        0.41033503935612       -1.80485334905115
Cl          -0.54729044804058       -1.61632494154215        1.97998053017196
O           -0.36070776458389        0.75356910917133        0.84277227840533
O            0.35788701974647       -1.32394081204286       -0.72641653284193
C            1.64200540616905        1.06337324996855       -0.25901022874731
C            2.13549899729805       -0.21125311275306        0.23959522899097
C            2.12076983967213       -2.61549142146104        0.13301484242794
C            0.07473303424606        2.87935803076545       -0.06503818783760
C            0.87219930876111        3.64742557972167       -0.86425238427493
C            2.48101508974919        1.83817549994434       -1.10646289616694
C            2.06135996278750        3.14510769171320       -1.45437854200663
C            3.33278968732451       -0.22199835164584        1.00699396223322
C            3.89259655319213       -1.47349691634145        1.36032422105554
C            3.27771361612339       -2.64925280184278        0.85788893018275
C            3.65492500262402        1.32666045551573       -1.69066908942190
C            2.83791448220793        3.91046865634889       -2.33203610805194
C            3.92689988558594        0.95052567963197        1.51052106083107
C            5.04207489972247       -1.51724292432651        2.15810007282853
H            3.75495342872255       -3.58646409121971        1.07757605610351
C            1.52858346557613       -3.85257578224811       -0.52687031089220
N            0.45279633318561        1.58925793057915        0.14535265442723
N            1.55526512381257       -1.39805231338342       -0.09032509827323
C           -1.12179297803156        3.44177966968765        0.68895074140944
H            0.60841548491775        4.66702631443711       -1.07754168376615
C            3.99582877408583        3.39658203924676       -2.87044249728510
C            4.39702014145662        2.09921530447759       -2.55170214922601
H            3.96857006914607        0.31954042872044       -1.46418605726858
H            2.51259436498321        4.90958050688365       -2.58068050301864
H            4.58980012138717        3.99085558654627       -3.54792572740904
H            5.29452779922592        1.69383702076257       -2.99385368602654
C            5.05321387561805        0.87848523634746        2.29470477594993
C            5.62041741765002       -0.35498453612166        2.61517029142457
H            5.46610661548138       -2.47770247601882        2.40999913104849
H            3.49079385401653        1.91062946259973        1.28289780822554
H            5.49777889152985        1.78578586333280        2.67484872506297
H            6.50595852590615       -0.39467401350466        3.23094271775984
C           -0.85826546622937        3.27241640812367        2.19484707824583
C           -1.28836475437230        4.94080773952243        0.40899051120839
C           -2.43631514353031        2.75378101573887        0.30108338736417
C            0.12085495547005       -4.17380599095099       -0.00845650590164
C            1.49991853956481       -3.62183978237717       -2.04736931419432
C            2.40661609772620       -5.08273564629623       -0.26067703517489
H           -1.67979879838094        3.71122013535041        2.75532007283343
H           -0.78256741998924        2.22495282941297        2.46902302941814
H            0.06356302014070        3.77769775826520        2.47895647540889
H           -3.27551617495013        3.31543633009830        0.70480742937965
H           -2.53845996709146        2.70311451603828       -0.77946600052519
H           -2.49502912278912        1.74687822025409        0.69781097402307
H           -2.11939173046909        5.31634343171815        1.00108680846360
H           -0.39997920238449        5.50155698882782        0.69027469824477
H           -1.51738948586199        5.12050814415292       -0.63821573795904
H           -0.62178036015581       -3.48292751518339       -0.39159278505410
H           -0.16153939506644       -5.17385864581958       -0.32865611491287
H            0.09742873939159       -4.13470361151249        1.07698597719402
H            0.83401065763461       -2.80699900356228       -2.31242037067202
H            2.49879432347959       -3.39512170978899       -2.41741434862425
H            1.14715149481216       -4.52357646149642       -2.54136176748750
H            2.42858779127295       -5.32584555567651        0.79836173265411
H            1.98516940443372       -5.93466911968612       -0.78874361250282
H            3.42145880888761       -4.93696953368618       -0.62382747195635
