81
 energy: -124.884217421597 gnorm: 0.000470707686 xtb: 6.5.1 (b24c23e)
Si           0.99957734407244        0.69088542893218       -0.58127422132205
O            2.54304561898282        1.14251737995320       -0.73598557872362
C            3.50199664648069        1.65803108191996        0.16514210008641
C            4.21485528621731        0.50229713595617        0.82006204061153
H            2.99591132607977        2.26018603371797        0.92687157490182
C            4.89399352613857       -0.42773175839670        0.04256494603155
C            4.15343413456222        0.32220438211264        2.19475276317658
C            5.51444588881535       -1.51311920429992        0.63419364077224
H            4.91957484552844       -0.30877278485964       -1.03010890879128
C            4.77233605910536       -0.76595191364059        2.78547451843221
H            3.61085488470007        1.03234317668943        2.80133436493051
C            5.45624171313758       -1.68376987719289        2.00702079655868
H            6.04307599503676       -2.22881039532610        0.02118245494004
H            4.71666688607331       -0.89914448665805        3.85600720299803
H            5.93967976377157       -2.53253385854882        2.46910442273369
C            4.46253986472059        2.55711085824725       -0.62876619412002
C            3.78731884473242        3.76002897295936       -1.06488039065588
H            5.31043048182699        2.81911300195333        0.00981938461050
H            4.82558696173562        2.01050502342291       -1.50163135074021
C            3.18942048508592        4.73709975942187       -1.40999123637365
H            2.68489252266420        5.60245071518444       -1.71962133804524
Cl           1.13217513710614       -0.10038231308116       -2.55886516346805
Cl           0.71153679613897        1.71235030518407        1.38663726141322
O            0.66634767187093       -0.75812175850805        0.24398864861384
O           -0.54161393895723        1.22711602256139       -1.10639216439065
C           -1.57167313834022       -1.15676224060422       -0.25442141395792
C           -1.99242947087925        0.12252431506833        0.29223600608255
C           -2.15068997307261        2.50976926314403        0.03223090555770
C            0.06114012108143       -2.91797877436444       -0.42409797904269
C           -0.90253867684206       -3.76093439354492       -0.89840227795254
C           -2.58076825680664       -2.00675709990283       -0.79380787004877
C           -2.23079162818977       -3.33050803364943       -1.15020267417136
C           -2.97149914824571        0.14040130050307        1.32518626704492
C           -3.51462964663321        1.38904508934880        1.71305345387010
C           -3.11334253413957        2.54830070757658        1.00022908589529
C           -3.88530285138020       -1.55819857173342       -1.07228513705215
C           -3.19326399067762       -4.17688288936710       -1.71225636205727
C           -3.34858129116281       -1.01240282204255        2.03859017057472
C           -4.44684954431986        1.44349920002807        2.75666902342542
H           -3.58740822815636        3.47674603121888        1.26100717740013
C           -1.79349755950625        3.71364345562289       -0.82705024104417
N           -0.29084707163983       -1.62303262212609       -0.18332714844917
N           -1.57858866926174        1.30573935547323       -0.23518334774827
C            1.46751073115187       -3.39689039343061       -0.09173337833046
H           -0.67007991049963       -4.78782345231264       -1.11172483672193
C           -4.47222167975904       -3.72381221563130       -1.94378232088801
C           -4.81030834928012       -2.40748613711340       -1.63180175207423
H           -4.15980608008182       -0.53857117279039       -0.85200168345451
H           -2.91461931939429       -5.18926290264420       -1.96372394705122
H           -5.21069251501572       -4.37973537197098       -2.37874345124147
H           -5.80635426587850       -2.04770490154500       -1.84080108244649
C           -4.26201150833913       -0.92951480690120        3.06175100262725
C           -4.82242840735777        0.29742575640941        3.41858537859658
H           -4.86405500216984        2.40009065316695        3.03377852748104
H           -2.91194274590730       -1.96517827424937        1.78258470631314
H           -4.54197587882768       -1.82158768161681        3.60133161174869
H           -5.54133122306465        0.34541044798081        4.22228829330276
C            1.77771261700362       -3.11013073215928        1.38679548713502
C            1.59221189069251       -4.91299946389552       -0.29646242803811
C            2.50594877648990       -2.72417843430379       -0.99727956396062
C           -0.32467652720034        4.13008102011817       -0.67277655625771
C           -2.09703927089238        3.36329558368310       -2.29373665771814
C           -2.65520507438168        4.92561151792903       -0.44862928896562
H            2.76567069362863       -3.49503230754682        1.62704820529770
H            1.77601009897651       -2.04675237949900        1.60046057408548
H            1.04786161726537       -3.60000425225976        2.02947106490783
H            3.46182344896482       -3.23003355794741       -0.88599713457834
H            2.19725161510426       -2.77497683715353       -2.03829554958352
H            2.64876749742759       -1.68356256164154       -0.73447295778357
H            2.59009342081357       -5.22287543774706        0.00410702895087
H            0.87706688123249       -5.45963606034814        0.31408971558572
H            1.46183825053512       -5.18222134692191       -1.34138730680698
H            0.35023174494661        3.43474842558648       -1.16023464950000
H           -0.18158986052736        5.10733723469127       -1.12740766331248
H           -0.05338584535193        4.19146330099229        0.37772313764017
H           -1.47501207873473        2.54570377229726       -2.64436577685056
H           -3.14322943831010        3.08370754406753       -2.40891104318917
H           -1.90124928589744        4.23041180164263       -2.91945609489722
H           -2.45095144967697        5.24942118752944        0.56875535156411
H           -2.41371087218960        5.74953095738169       -1.11587412725246
H           -3.71587488294674        4.71132527980039       -0.55757904683007
