81
 energy: -124.886162450223 gnorm: 0.000443810663 xtb: 6.5.1 (b24c23e)
Si          -1.41823473109112        0.42410354265469       -0.41041256619032
O           -1.74443961619489       -0.99846995501417        0.31726121515194
C           -2.66167120911404       -1.41114299986972        1.31194708980406
C           -4.08929485622016       -1.02633781248206        0.97569536190498
H           -2.59288599053696       -2.51197915612882        1.28389608780324
C           -4.53886463873121       -1.25086797712364       -0.32062456841568
C           -4.97136595601169       -0.47625484893751        1.89637871102449
C           -5.82476746506947       -0.91344689670855       -0.69778663579205
H           -3.86624654764246       -1.67722445630956       -1.04704487808049
C           -6.26242152203896       -0.14753929672168        1.52121995841436
H           -4.66296181859832       -0.27352934092241        2.90904650854729
C           -6.69420742035371       -0.35938277718604        0.22461912781622
H           -6.14366210204236       -1.08179202673661       -1.71570408723550
H           -6.93043801053402        0.28942746805638        2.24902124630609
H           -7.69870885476088       -0.08960346255818       -0.06619514673206
C           -2.19750603614479       -0.93994484938836        2.69743231377314
C           -0.86590359403897       -1.41876218730566        2.99502293478342
H           -2.88055136104537       -1.33063596039454        3.45508744864321
H           -2.20774118994136        0.15177605111936        2.72124138932597
C            0.22517190542520       -1.83901534561134        3.24924117312159
H            1.17881765481834       -2.19976418191476        3.49271855104514
Cl          -2.24240926407068        0.96450319471501       -2.22809409885317
Cl          -2.82515291142951        1.64835116969097        0.71390186761190
O           -0.23723710229752        1.39602829128333        0.35123178455526
O           -0.18595484817362       -0.40458085229454       -1.43367257747637
C            1.94162425387175        0.67899347831813       -0.16272722121232
C            1.59360472770659       -0.71283679942558       -0.01680769545328
C            0.57003098052711       -2.60710969905064       -1.05714404337916
C            1.40991479992943        3.01911956080024       -0.00141959943414
C            2.72057371145223        3.32252581177276       -0.23480918361466
C            3.30011225901636        0.98208179447713       -0.49154437225997
C            3.70072454523638        2.33679020809584       -0.51314923771519
C            2.34814235087960       -1.55071430283107        0.85410569611876
C            2.15609107292899       -2.94884088695741        0.76441651527225
C            1.30648174334836       -3.43870331463714       -0.26003461412034
C            4.23451716362758        0.00682974246789       -0.88676317096073
C            5.02354456534653        2.67263492903738       -0.82318456008367
C            3.20123614758739       -1.04266055763244        1.84925587824621
C            2.84899629877250       -3.79862310277932        1.63678554841604
H            1.26029620064090       -4.50391738711731       -0.39544599459191
C           -0.19018137901433       -3.10965671599307       -2.27619660952443
N            1.04784788519217        1.69788020344601        0.00528257644421
N            0.65119765051636       -1.26950932767632       -0.82108771886594
C            0.38817970719596        4.11444438276629        0.27420941461721
H            3.04703140695866        4.34550234501119       -0.24034821811054
C            5.93330007920129        1.69305565625321       -1.15037999215310
C            5.52558987368162        0.36122106180192       -1.20178533674567
H            3.94008949072401       -1.02836284587861       -0.95165385733376
H            5.31491286687256        3.71220271207142       -0.80806746616713
H            6.95293474234666        1.95426131380404       -1.38867060961964
H            6.22785357363462       -0.40185522590580       -1.50141911605088
C            3.86896723129056       -1.89813971636699        2.69386678436102
C            3.70080603753699       -3.27978034771982        2.58521071683286
H            2.70290133724106       -4.86532593470053        1.55384666852972
H            3.32262431276979        0.02411909491010        1.95416539341498
H            4.51929712897953       -1.49748276816931        3.45686633018316
H            4.23192404776536       -3.93856687525257        3.25581077212240
C           -0.23760220411487        3.92075961170110        1.66341776080383
C            1.04598408316073        5.50268805230644        0.26845976087998
C           -0.68421242537268        4.12274442165827       -0.82328406304043
C           -1.69976880294503       -2.88883420770996       -2.15184693295233
C            0.34750591570484       -2.36560846005566       -3.50974902641480
C            0.04606837810363       -4.60987215843759       -2.49322616473787
H           -0.86985614900265        4.77411898939702        1.89315451720174
H           -0.85461033571220        3.03159852258531        1.70599399171090
H            0.54133462365105        3.85190676168846        2.42100775981232
H           -1.30857580229865        5.00499483544457       -0.71061249352446
H           -0.22194110721823        4.14913395536544       -1.80831506739463
H           -1.33208900638289        3.25947669316534       -0.76473255705413
H            0.28113866775709        6.24540283804241        0.48153998154612
H            1.81102611794700        5.58734692635287        1.03687997254108
H            1.47349675440110        5.73998483207343       -0.70287840805727
H           -1.93773642415797       -1.83360075851552       -2.20408381371485
H           -2.21073120982712       -3.39378364414065       -2.96877627068257
H           -2.06281239492028       -3.29303340976542       -1.20971160074382
H            0.13391489646933       -1.30308777042787       -3.44850063873721
H            1.42350287046904       -2.50653893448653       -3.60179124562390
H           -0.12992577311658       -2.75595309153020       -4.40482646915919
H           -0.36990293696556       -5.19867790733226       -1.67926507547186
H           -0.45390593160221       -4.91265617415458       -3.41023638563956
H            1.10452386806391       -4.83565474407617       -2.60080641954132
