61
 energy: -107.985774111927 gnorm: 0.000707200357 xtb: 6.5.1 (b24c23e)
Si          -1.07209380220772       -0.51786440258407       -0.43161404088421
O           -2.53435069761901       -0.07611478886491        0.17268529572957
C           -3.73348493131989       -0.78300934606955        0.33295858783794
C           -4.75223644503091        0.15417280736787        0.93178357410590
H           -3.55585793309078       -1.63312116790308        1.00858445979100
C           -4.99012282684329        1.37890079583407        0.32051244896169
C           -5.47091490426186       -0.18991302908271        2.06684591076054
C           -5.92992655349109        2.24886783165908        0.84252815361334
H           -4.42286629331041        1.63842139432680       -0.56094287599567
C           -6.41608061477135        0.67913496433124        2.58544660901962
H           -5.28916337340485       -1.14126080245774        2.54607137024242
C           -6.64663909474402        1.89989026406860        1.97564110569404
H           -6.11376137803947        3.20008678397776        0.36214730596642
H           -6.97171708358492        0.40320907934955        3.46989547378579
H           -7.38244451773310        2.57838717248097        2.38228535792299
C           -4.27470318378528       -1.32227473881293       -1.00989778789574
C           -3.53566735987104       -2.48145584403474       -1.45305749877529
H           -5.32735131233343       -1.58923942089149       -0.87998825535395
H           -4.19431861162880       -0.53186923424434       -1.75947523869437
C           -2.89886566236023       -3.44196109752966       -1.77374305040481
H           -2.35177850192939       -4.28931760109572       -2.05636559951549
Cl          -1.46997801461026        0.14072763133373       -2.36502683192724
Cl          -0.92010778842740       -2.29801572110958        0.68394983272026
O           -0.26368188509645        0.62308461202068        0.55019570675675
O            0.55798878926672       -0.92593230261708       -1.24664101255724
C            1.98283772039118        1.00615286352847       -0.04386827100288
C            2.28123082097792       -0.37794628793012        0.20459632205427
C            1.89358513663768       -2.64002552845318       -0.43440536071269
C            0.32813130808429        2.72841879899104       -0.19788627281185
C            1.26216892406363        3.65945616599733       -0.56002397682545
C            2.98871285776800        1.93737758544004       -0.45629166868343
C            2.62408757859064        3.28780607228317       -0.70498025048053
C            3.30656405565940       -0.80212749166358        1.10452665666578
C            3.62941820370954       -2.18214760181588        1.18177389784926
C            2.91982049928825       -3.08676104000433        0.35611760437290
C            4.31395489476967        1.55022943215601       -0.71900226431089
C            3.59802244117829        4.20691127280384       -1.11192335209705
C            3.94586934320262        0.08937404921722        1.98252661413871
C            4.62752190946299       -2.60768960440950        2.07048608431328
H            3.16386830021624       -4.13616467248867        0.36250126499603
C            1.18424594335807       -3.50205388978455       -1.29823056002190
N            0.69685822950306        1.44607694011009        0.05766514787947
N            1.57750512489883       -1.32158658357283       -0.47111316972721
C           -1.03093833211793        3.05682362674697       -0.00750226712039
H            0.95315218836846        4.67383398042995       -0.75057711424967
C            4.90083949505286        3.80810105722885       -1.31172208530515
C            5.24935060900362        2.47143101984078       -1.13250634139496
H            4.60305451183904        0.51843453426243       -0.59982587575315
H            3.30594410670564        5.23340012096033       -1.27490741065914
H            5.64602170754509        4.52260642666563       -1.62592497447516
H            6.26150606944661        2.15038329841714       -1.32604986892717
C            4.91014679108717       -0.35768087328846        2.85454415334258
C            5.26609619755989       -1.70654156339683        2.88898528302076
H            4.87696883695248       -3.65746324412836        2.10562593893320
H            3.67124975289440        1.13267640047506        1.97175187071828
H            5.39080129637901        0.34008293766562        3.52313203504110
H            6.03195340248956       -2.04156708907232        3.57180152413669
C           -2.17679157432402        3.34656160787851        0.20093721291828
H           -3.18178186825153        3.59128401094728        0.37534445488141
C            0.64136246829361       -4.22902502840668       -2.08370442537515
H            0.16307202954818       -4.87436754308387       -2.75853055622360
