61
 energy: -107.996022964459 gnorm: 0.000789858759 xtb: 6.5.1 (b24c23e)
Si          -1.55523925946632       -1.21544393163337        0.95484485226928
O           -2.80109846781522       -0.59578567641997        0.12308682049012
C           -2.87618330698627       -0.13773796677097       -1.21310577643677
C           -2.27733279560146        1.24264480331090       -1.30210512366702
H           -2.31901166162419       -0.82459997129125       -1.85774614638618
C           -2.74999021554555        2.25375403385162       -0.47453773546946
C           -1.22398589315578        1.51224093610106       -2.16509188483508
C           -2.19118423105627        3.51814800043397       -0.52459086365038
H           -3.54585829512760        2.03979783600550        0.22235856060811
C           -0.65583427700566        2.77382422054066       -2.20542950506900
H           -0.84466998586931        0.72589827711465       -2.80146521960053
C           -1.14322093491077        3.78130391161983       -1.39059448182308
H           -2.57229537619160        4.29725134333292        0.11916412906989
H            0.17144954516575        2.97155226107714       -2.87181581633401
H           -0.70163008367856        4.76629261336593       -1.42780610721067
C           -4.35667143553245       -0.14506489160128       -1.62738123399822
C           -4.83507392058509       -1.50356267591104       -1.76867102114189
H           -4.46492087911372        0.38850795365368       -2.57582711250653
H           -4.94244485492500        0.36405489640367       -0.85945477013084
C           -5.19176690866042       -2.64010868841112       -1.87831226270156
H           -5.52737591882542       -3.62980181987222       -1.96604954706827
Cl          -2.74059582675740       -1.28655316531859        2.68495357709825
Cl          -0.96560336816368       -3.19575702886540        1.05311426828940
O           -0.48520102672865       -0.96854038707483       -0.58573654887950
O           -0.38245208227517       -0.27263269474740        1.79190053709531
C            1.71849646731941       -0.56251752822959        0.00610853568771
C            1.30152795562066        0.73089041435312        0.46799599260370
C           -0.26215640676094        2.03170740315795        1.73203466198990
C            1.10233350218884       -2.53907394387717       -1.17853851535552
C            2.39612111669576       -2.98879445794188       -1.19535234803533
C            3.06753172396149       -1.02963488969987        0.08949237306443
C            3.40957244774373       -2.26366771161969       -0.52305244803303
C            1.95064803264817        1.93498333420058        0.04427280226062
C            1.49968626460456        3.18306480649957        0.54864603271339
C            0.37808070385320        3.19717433888933        1.41713758630370
C            4.04736274315800       -0.35290940066691        0.83402327564679
C            4.72864237547502       -2.73278356159578       -0.43775022064188
C            2.96203936617907        1.94125494698876       -0.93065744370209
C            2.12926688631254        4.36496285140937        0.14263615445461
H            0.00017209130541        4.13030487423852        1.80013563885825
C           -1.41447247753194        1.98485545619066        2.54469079120816
N            0.78831270149327       -1.37194380235794       -0.56091708086545
N            0.21335155393968        0.83988503920157        1.28184099670894
C            0.05161860179714       -3.20366411183321       -1.84845218453211
H            2.62988454256301       -3.91111232324772       -1.70069144485044
C            5.67768716367174       -2.02848771374155        0.26440360599947
C            5.32877735726604       -0.84486635903057        0.91552870228484
H            3.78661366886960        0.55787305087685        1.35001648227269
H            4.98025787418808       -3.66289013421658       -0.92477777622444
H            6.68991291754647       -2.39746962973999        0.32863264291169
H            6.06903081651412       -0.31414344670719        1.49445804540126
C            3.55199449255034        3.11995503026462       -1.32797355197157
C            3.15348997138639        4.33552041366793       -0.77730431334873
H            1.78837893508083        5.30200220815975        0.55673288799160
H            3.27887080006147        1.01292347789357       -1.37857097379437
H            4.32748271872826        3.09969230599912       -2.07866087284455
H            3.63283454375647        5.25140161738420       -1.08745946300957
C           -0.85214617701352       -3.71093255017937       -2.45413898129806
H           -1.64276689680342       -4.17964200478349       -2.95962673402891
C           -2.39227659596904        1.88580323233501        3.23380292238220
H           -3.24920232196495        1.78756457886238        3.83083463378007
