61
 energy: -107.992357510256 gnorm: 0.000594830682 xtb: 6.5.1 (b24c23e)
Si          -1.21270861692543       -0.18801817680117        0.68853823661407
O           -1.99604088819020        0.69361551402746       -0.41916592571074
C           -3.31093662485133        1.19112675452255       -0.39224833138700
C           -4.31649017179626        0.07395557771814       -0.50292367755223
H           -3.46811840702360        1.73067632597900        0.55026764579358
C           -4.02943848084596       -1.04506264794522       -1.27251491175180
C           -5.53371344103114        0.15492566422943        0.15846407804566
C           -4.94950652440427       -2.07269090050045       -1.37434871147429
H           -3.07225593034550       -1.11115681732059       -1.76834919491962
C           -6.45458404659405       -0.87166225763045        0.05035648212803
H           -5.75149567789499        1.01835606744165        0.76984603615200
C           -6.16425187252285       -1.98733292048156       -0.71633671038959
H           -4.72116823260061       -2.94526118020529       -1.96868257971981
H           -7.39724939156923       -0.80507389286071        0.57328860463200
H           -6.88075345942395       -2.79192308381630       -0.79452483707457
C           -3.45445286374829        2.16400302691906       -1.57688892831492
C           -2.57012760298395        3.29764344594416       -1.41931280261816
H           -4.49105029317604        2.50540870627819       -1.63412586486505
H           -3.20219295341462        1.63003532743278       -2.49621710558172
C           -1.81956955874148        4.21455050058019       -1.25357202468657
H           -1.17413946406458        5.03044199351840       -1.12296044767303
Cl          -1.42274830764034       -2.19653941492016        1.16679263970169
Cl          -2.36648066359963        0.41592095379709        2.40569976189111
O           -0.14240024100928       -0.61484550888777       -0.74997899466669
O            0.16263839535712        0.50943660854059        1.44253307682283
C            2.07168214013183       -0.76551879752574       -0.05263282996878
C            2.07187545114505        0.66365329820118        0.07660926241351
C            0.89485687365120        2.61321198388136        0.81811871885294
C            0.90094107918115       -2.68047677678721       -0.85281184840254
C            1.99000721066459       -3.48717159097068       -0.64849607793240
C            3.19982140258691       -1.58311083002018        0.26656202173556
C            3.15825660319588       -2.96815287519913       -0.04001823860756
C            3.06760513399429        1.49507585719996       -0.52972306113790
C            2.96147273506943        2.90618855847217       -0.40064050694348
C            1.84182595180998        3.44367442192460        0.28545010780713
C            4.31566485368861       -1.07882428679858        0.95502493196275
C            4.25966319416939       -3.77707592324222        0.27483332534433
C            4.09990429397807        0.97959273163223       -1.33170873279473
C            3.93005618948256        3.73162403371496       -0.98445900617982
H            1.72269606793125        4.51080644441515        0.37430624874684
C           -0.24101513687748        3.09016134092292        1.50505517232249
N            0.94621049643007       -1.36419677801663       -0.52580805745837
N            1.04334330553813        1.26559587813800        0.73479322624463
C           -0.27515378547522       -3.15703846298328       -1.47217176728301
H            1.93794593316030       -4.52614839300899       -0.92882175953428
C            5.35712372100006       -3.24752952771229        0.91172580350134
C            5.37456960130634       -1.89858923846450        1.26766597334566
H            4.33523039284915       -0.03949940231308        1.24376919527131
H            4.22376585996934       -4.82487648838476        0.01751954961676
H            6.19997324024566       -3.87678037949622        1.15372034738521
H            6.22323151002390       -1.49595556389273        1.79911913056372
C            5.02962208399494        1.81470343460169       -1.90847603735729
C            4.96216858965492        3.19325569382234       -1.71934489886483
H            3.84693356569286        4.80026100773614       -0.85472538277460
H            4.16488883490758       -0.08299632697925       -1.50169876711232
H            5.81495938378646        1.39487903294697       -2.51836903158601
H            5.70478919505262        3.83629190447695       -2.16609994231444
C           -1.24464015745864       -3.56468167712227       -2.05060705230856
H           -2.10709094738763       -3.92588851749799       -2.52565578155521
C           -1.21394624148021        3.46342049792779        2.10075372434495
H           -2.06739030657338        3.77837005084054        2.62315852726838
