61
 energy: -107.994042609927 gnorm: 0.000679928193 xtb: 6.5.1 (b24c23e)
Si          -1.53984991238740       -1.43603001914874        0.30847530741282
O           -2.33409834667283       -0.04277313498873        0.52663310634396
C           -3.07620468424180        0.95701111370650       -0.13444963039252
C           -2.15726120311716        1.75472153168858       -1.03017740865742
H           -3.42804570605634        1.60296433188312        0.68498013889675
C           -1.48453199382476        1.14233934642572       -2.08051698793549
C           -1.93017740514997        3.10108512795192       -0.77519728791314
C           -0.58130688929833        1.86173473058391       -2.84277154641446
H           -1.65543079676483        0.09838292454512       -2.29178418992717
C           -1.04105902962593        3.82389906687075       -1.55101334565207
H           -2.45471990950498        3.58528607084482        0.03679658136090
C           -0.35554055372599        3.20217954304525       -2.57984080370980
H           -0.05530804367662        1.37273044843135       -3.64943591463143
H           -0.87722939846337        4.87172779743838       -1.34677952557547
H            0.34971777323369        3.76215558400641       -3.17605299194055
C           -4.30753561322758        0.43002450428499       -0.88722639395864
C           -5.20110079048321       -0.24554562744003        0.02857653404640
H           -4.81533276108526        1.28296288770110       -1.34628373624413
H           -4.00133024915367       -0.26992084898474       -1.66521073238120
C           -5.90105963996628       -0.79644331399028        0.82696913874459
H           -6.53257953840876       -1.29640702509700        1.49842977349701
Cl          -1.87689980049496       -2.98169894692374        1.59440295897547
Cl          -2.63603321851153       -2.29206836093015       -1.31439467898078
O           -0.21755666327981       -1.36297258341797       -0.80061577836302
O           -0.31812742926280       -0.86470921382614        1.61064161100475
C            1.84805043448695       -0.60931519470500        0.05176369688559
C            1.19456339128017        0.55890260357153        0.56564746204277
C           -0.44890197679484        1.40254259132602        2.06662821649325
C            1.57996610076685       -2.81286842030836       -0.85530417893627
C            2.92245477040648       -3.05749590524739       -0.78056782069682
C            3.25711507042197       -0.83241908572534        0.17421683476822
C            3.80324004401296       -2.06495597188481       -0.27621710639333
C            1.59647647839619        1.89284232524538        0.24960387765850
C            0.99550392059602        2.97682201993981        0.93866942922412
C           -0.01565211570728        2.69093395965579        1.88620575812323
C            4.11734248532313        0.07829493712776        0.81086011833876
C            5.17960203525296       -2.29615407597844       -0.16670008202135
C            2.50356125220847        2.17169566531426       -0.78511533042828
C            1.39353748961790        4.28783329406618        0.64037184431085
H           -0.48172530473788        3.48829115585734        2.44159772521783
C           -1.49477052098959        1.07570970198861        2.95634129325699
N            1.08392152211080       -1.60068388829102       -0.48756684891461
N            0.14481919278180        0.37594065492330        1.41005825603898
C            0.64718552536689       -3.75875573770040       -1.33089516620438
H            3.30490803787931       -4.01771851864896       -1.08483008635778
C            6.00609359040910       -1.35983778440738        0.41240073261915
C            5.46446287839305       -0.18132744466454        0.92076552084821
H            3.71915240404570        0.99131245067422        1.22311298041667
H            5.57893566327100       -3.22879960102876       -0.53588399928177
H            7.06593291379042       -1.54591356038249        0.49366252859672
H            6.10494886510141        0.53500660806760        1.41236963860658
C            2.85839394648863        3.46839039789063       -1.07351791309189
C            2.32073365020716        4.52963122677149       -0.34517951164010
H            0.94876146415373        5.10288371606803        1.19135386202675
H            2.92063578223986        1.35767720070748       -1.35733346746430
H            3.55657755525311        3.66640924458860       -1.87243954561076
H            2.62055897091840        5.54161260942373       -0.57161532447090
C           -0.19156821299735       -4.52810507983525       -1.71278125050957
H           -0.92773243793148       -5.19872568935504       -2.04353835527650
C           -2.38676472803324        0.79322667396240        3.70801309564489
H           -3.17197433484072        0.54004998633356        4.35583391857729
