61
 energy: -107.905148529567 gnorm: 0.000928920749 xtb: 6.5.1 (b24c23e)
Si          -0.91897934326481       -1.00483283792432       -0.90818482483879
O           -2.64821541325818       -0.80046571836004       -0.32899741988125
C           -3.06182875961137       -0.69472048864749        0.84097031125292
C           -4.39101871019074       -0.26686317680688        1.15146749219293
H           -2.39486404584117       -0.94066862559575        1.66950747948748
C           -5.28399649170441        0.08087168546945        0.12292519636846
C           -4.81837867570306       -0.18495952453804        2.48619906231964
C           -6.56074601297126        0.49926797329047        0.42714557243441
H           -4.93492695750708        0.01708772323245       -0.89635079744883
C           -6.09897783359004        0.23530606319448        2.77721488511500
H           -4.13381155477279       -0.45526392587001        3.27598833877943
C           -6.97246526175439        0.57838686413685        1.75244382025735
H           -7.24499597668972        0.76624630761842       -0.36449497992966
H           -6.42679057777686        0.29778561720186        3.80432553862418
H           -7.97406626782239        0.90661850805308        1.98709378082496
C           -3.44773508444606        1.69045185378860       -2.52585956776691
C           -2.31511229262111        1.07990087533293       -2.35835966041206
H           -3.68867613151640        2.59638994143756       -1.99231923410308
H           -4.18365228412000        1.32506978634096       -3.22367568280021
C           -1.20829837044198        0.45016441750289       -2.15170704056032
H           -0.34871834638072        0.68700264522435       -2.76544504768620
Cl          -0.56492366243873       -2.51664670799802        0.66937059392612
Cl          -1.57203634764425       -2.48903827139116       -2.28948315711936
O            0.81633971514355       -1.00553401281455       -1.43916218198604
O           -0.37808196439840        0.17502262596325        0.49243820037523
C            2.27383748435515       -0.27983043228290        0.18863770426279
C            1.71651553163667        1.04685972934764        0.01421787715941
C           -0.21230082542123        2.43584684464832        0.09333508175147
C            2.25036633618182       -2.55754908524689       -0.49828254805343
C            3.28752950972145       -2.86502215252433        0.34299151513989
C            3.31823118221169       -0.55618705820453        1.11613914540112
C            3.84206733694437       -1.87524149205544        1.18489518191768
C            2.52285129616299        2.17038867242353       -0.33115192126842
C            1.91617499720309        3.45155330587261       -0.43092094705420
C            0.52530401500294        3.55567852601133       -0.18988872030809
C            3.80228180912286        0.40874683550514        2.01891958557045
C            4.87477743799376       -2.16037616339654        2.09252112002662
C            3.88697906291581        2.04858880209944       -0.65024066221246
C            2.69905187423606        4.56341341156896       -0.77089635345267
H            0.03488471954065        4.51401718169198       -0.23941644939169
C           -1.59282292357457        2.49510225372592        0.38396780118733
N            1.78082326017349       -1.28444245685470       -0.56489908198683
N            0.38078363425490        1.21562483899473        0.17666245446987
C            1.64678205240265       -3.49943340387209       -1.35538086721471
H            3.65865930318325       -3.87634119858974        0.37418319317877
C            5.35550889304605       -1.18672658582356        2.93303554724479
C            4.80375477485594        0.09657158265898        2.90498165392546
H            3.37872969891488        1.40094763448210        2.01417452541279
H            5.27646527418297       -3.16200529272274        2.12117402138699
H            6.14898302537550       -1.41275053076321        3.62900360262522
H            5.16460190833360        0.84807540783368        3.59068718002147
C            4.62816665485490        3.15507769731170       -0.99296605550751
C            4.04048119273610        4.41928921789798       -1.03930493818853
H            2.22711108921024        5.53296348218968       -0.82465863693102
H            4.35356644510562        1.07632195065977       -0.62890731392404
H            5.67407814735974        3.04213122018619       -1.23428808365933
H            4.63709944027066        5.27962932974347       -1.30111643545722
C            1.09486276732555       -4.26129570271426       -2.10129603844231
H            0.58773300440582       -4.92227673164819       -2.73846617196155
C           -2.75272442815573        2.55178549329341        0.68848604873199
H           -3.77172333075202        2.60173927070001        0.93314730817419
