61
 energy: -107.998513869748 gnorm: 0.000656707072 xtb: 6.5.1 (b24c23e)
Si          -1.23018958105364       -1.71019215770615        0.11076401094786
O           -2.20270202683427       -0.41531203248701        0.21309214384029
C           -3.20355053988813        0.13295989185061       -0.61893665457040
C           -2.61780082147697        1.42447930997050       -1.14844772892689
H           -3.38966200045354       -0.55628106069417       -1.45321706917511
C           -3.00101682731247        2.68364275409690       -0.70981488445904
C           -1.56001677586791        1.31903153845425       -2.04722156039875
C           -2.34771700580693        3.81447065464403       -1.17278867380468
H           -3.81296595527467        2.79676382926513       -0.00828736476553
C           -0.90060325485954        2.44666539098415       -2.49818180916000
H           -1.25597327779798        0.33830670038434       -2.38323252342564
C           -1.29590535335428        3.70080309329140       -2.06326540752059
H           -2.66178845329533        4.78986154475310       -0.83013112811239
H           -0.07907033683096        2.34913374362261       -3.19272130861285
H           -0.78510296887803        4.58391762746701       -2.41750275516420
C           -4.48963051294716        0.28024708211054        0.20165145772988
C           -4.94536685438594       -1.02955110479792        0.62129588160206
H           -5.25500752802834        0.76380204854314       -0.41046458480642
H           -4.28682750439870        0.88268902273527        1.09098369721702
C           -5.26440120194579       -2.13049446696673        0.96295822014088
H           -5.55482032309714       -3.09373586246791        1.25839245078643
Cl          -1.34538882592642       -3.32458840834247        1.35133657259145
Cl          -2.16216757815179       -2.66036360888359       -1.56288599755465
O            0.11575296760684       -1.43447059179146       -0.93284485694984
O           -0.22189585208773       -0.95068082031366        1.46771310759668
C            1.97647687006004       -0.36808042235869        0.04761115949840
C            1.11679378886794        0.68764955865024        0.50131395376149
C           -0.74257186803340        1.27202945964745        1.87021051790527
C            2.11517316240664       -2.58921596395996       -0.84813658274026
C            3.47080076192362       -2.62332445918270       -0.67844188431244
C            3.39124519385167       -0.37002368777250        0.26649104199596
C            4.15079032162213       -1.50421330340789       -0.13020204857509
C            1.32206103728882        2.06638332644022        0.18704573745356
C            0.49999178129248        3.04540741058008        0.80148712079063
C           -0.51828485521987        2.61078429595102        1.68269217100852
C            4.05528403126742        0.66575280349956        0.94573346552865
C            5.53592155801398       -1.51771789627237        0.07265468111337
C            2.25045493161934        2.47949729789532       -0.78246848025929
C            0.69866732199177        4.40008262501497        0.49973844866438
H           -1.15047398105491        3.32892040623878        2.17846094701619
C           -1.77901384844843        0.78606267736596        2.69619205140644
N            1.41492157003456       -1.46655795882511       -0.53292818463469
N            0.05509798646589        0.34886526544295        1.27907753854470
C            1.37169810707696       -3.66900555617819       -1.36994142325527
H            4.01677142452985       -3.51407094710701       -0.94163503560954
C            6.16661837778236       -0.46188187117681        0.69112583429278
C            5.41601493895550        0.61975583199040        1.14666767551468
H            3.49336139847510        1.50704208640590        1.31808263266361
H            6.09898060356432       -2.37800288776140       -0.25668640375917
H            7.23475091244140       -0.48021237333601        0.84357887198758
H            5.90345485897075        1.42910232414028        1.66856231008039
C            2.40974451358250        3.81332614499283       -1.07575181834979
C            1.64852252193811        4.77995274675172       -0.41829686303461
H            0.08293299801351        5.13671781717194        0.99319197651566
H            2.84009366598310        1.73921786803915       -1.30063021402731
H            3.12728556004215        4.11414568235168       -1.82389151132575
H            1.79516462467337        5.82470841272441       -0.64698319550850
C            0.68249035661483       -4.55540904338813       -1.79461664057741
H            0.08047106291733       -5.32902556455891       -2.16871739811627
C           -2.65451250495534        0.35766305827280        3.39668932798554
H           -3.42842879221850       -0.02213028201567        3.99484898531069
