61
 energy: -107.995997025425 gnorm: 0.000870784078 xtb: 6.5.1 (b24c23e)
Si           1.25569053670643       -0.82628847838555       -0.24430958798752
O            1.82666563360899        0.69458040852504       -0.16614842769181
C            2.90149684907176        1.31387181305054        0.50472906990577
C            4.20768727846751        0.61248808987273        0.20823610544121
H            2.94180093989617        2.31935968054775        0.05158067054019
C            4.43752079741189        0.21727993570053       -1.10500716251321
C            5.17774594905864        0.35572323856287        1.16548483700678
C            5.60132105909390       -0.44015514738678       -1.45314666983115
H            3.67831354172450        0.41273289563740       -1.84800692749598
C            6.34854253970962       -0.29442037560343        0.81364073261823
H            5.02891096755688        0.64252177985679        2.19396820026619
C            6.56347406902441       -0.69740933191074       -0.49164301276650
H            5.75461058148567       -0.75526862884283       -2.47466679196129
H            7.09259147963779       -0.49532199387284        1.57049438608936
H            7.47368372725888       -1.21395724178284       -0.75844113392592
C            2.57445604044873        1.46796929848298        1.99768879565215
C            1.27730723364828        2.08738698104614        2.16515415610285
H            3.33423697040022        2.09172244911428        2.47371937485824
H            2.56170008000707        0.47944627449624        2.46162835228662
C            0.19967115688419        2.59822275524170        2.26740928044965
H           -0.74198071981735        3.04360321195704        2.39143137052532
Cl           1.71432999655005       -2.18376014114410       -1.71397479843051
Cl           2.51203985671522       -1.74848616016071        1.22819685807934
O           -0.05395366832153       -1.06344359098192        0.84658166352140
O            0.02419077513330       -0.20707429814812       -1.46983303610968
C           -2.18887676508652       -0.52280727031895       -0.00382199694056
C           -1.72203692416042        0.79737291630637       -0.31537889533013
C           -0.16453986456671        2.10223872421489       -1.55813243509548
C           -1.61137988216969       -2.75604198993678        0.64621061581451
C           -2.89524620145823       -3.19063344596438        0.46966862922436
C           -3.53658553119549       -0.94395945940915       -0.24201157369482
C           -3.90051943459927       -2.29028718762995        0.03064095357254
C           -2.35568560554968        1.99031768312990        0.15168217555149
C           -1.89163739929358        3.24694412130579       -0.31748137558522
C           -0.79602066116923        3.26871758508486       -1.21322773828063
C           -4.50036766386354       -0.10455004759182       -0.82675586323157
C           -5.21746203348878       -2.71214504826381       -0.18844305745170
C           -3.35725842674276        1.96802325222689        1.13662148198778
C           -2.50168787870963        4.42323947747108        0.14281888561885
H           -0.42796120221718        4.20524090960642       -1.59887804196973
C            0.94866623421997        2.08327013376803       -2.42634425944351
N           -1.29721965578154       -1.44627996615672        0.45509248408581
N           -0.62322529818990        0.91069979895406       -1.10524936400890
C           -0.56094089129414       -3.60468972463342        1.05454283998131
H           -3.13254232938718       -4.22776047551816        0.63970299364080
C           -6.15509909808307       -1.84850783275566       -0.70786848407942
C           -5.78373266663983       -0.54943036011113       -1.04782852089351
H           -4.23269257097272        0.90043736955578       -1.11061269938660
H           -5.48033850088276       -3.73226197445450        0.04781771523894
H           -7.16818894254258       -2.18108956762552       -0.87379959933099
H           -6.50678552639197        0.11531200186587       -1.49544189257427
C           -3.92439021216691        3.13813643670417        1.58608782715854
C           -3.51148544038784        4.36926498855318        1.07505664359618
H           -2.15227114100198        5.37158553584876       -0.23692243995906
H           -3.67556704502623        1.02284685112092        1.54787661664007
H           -4.68954390461636        3.10348957636947        2.34661103518616
H           -3.97239651146878        5.27891049986207        1.42902298906474
C            0.36929895577355       -4.29106853254644        1.37795401076324
H            1.18459299113452       -4.88877496189545        1.65891816445404
C            1.88236069829315        2.07861521506547       -3.18078726175464
H            2.70526565833518        2.06800034392262       -3.83202586720175
