59
 energy: -108.574795460137 gnorm: 0.000959095118 xtb: 6.5.1 (b24c23e)
Si          -0.76755272027744       -0.74750278495418       -1.35763983528058
O           -2.26675900460899       -1.23776336152368       -1.13054463472413
C           -3.47681155344600       -0.50862040189682       -0.91726467947117
C           -3.64491372285353       -0.22085107218155        0.55073218639592
H           -3.43293432977869        0.43088250660683       -1.47849621525903
C           -3.40966064516270       -1.22057963448909        1.48546767409233
C           -4.04963778765667        1.03585152977355        0.97914805641265
C           -3.59252891409195       -0.97021916084651        2.83313158454753
H           -3.07241677557922       -2.19081107808779        1.15289229816781
C           -4.22803889135946        1.28491479202351        2.32877228500995
H           -4.21761362306614        1.81880970871325        0.25485313173267
C           -4.00533873615076        0.28190906967716        3.25690216798184
H           -3.41636019095477       -1.75583014086942        3.55271000106716
H           -4.54156277004162        2.26527680750370        2.65572452517440
H           -4.15166567851919        0.47725199666553        4.30932647516672
C           -4.63024190554286       -1.37085257076941       -1.45128976813499
C           -4.52454924955025       -1.53669915217170       -2.88574204453309
H           -5.57714389555324       -0.88555062887652       -1.20229936423537
H           -4.59397461348120       -2.34948919656192       -0.96674761049318
C           -4.40299569053622       -1.65152779731592       -4.07042642731505
H           -4.31095809826550       -1.76655896020928       -5.10886594768585
Cl          -0.40516136308176        0.16462312254929       -3.10983259094498
Cl           0.31145048057369       -2.39687060681703       -1.08880132107208
O           -0.50304360623654        0.36781036190196       -0.15366233757053
O            3.71788799021699       -0.27972566145695       -0.89898314245791
C            1.72820893450181        1.15212656596640        0.16975799790360
C            2.05322401165188       -0.15593700473042        0.67221302067495
C            3.37679604984341       -2.09803987204273        0.42821538460002
C            0.02094588158333        2.56377480395991       -0.77635637303624
C            0.91912624339806        3.54607758176232       -1.05975065170240
C            2.68163961361244        2.17961418918845       -0.05328482847598
C            2.29287143851602        3.38296710746520       -0.70888484840611
C            1.31536403164009       -0.78534706843617        1.71609191553508
C            1.59419326289768       -2.13666131463772        2.05073438989588
C            2.65145239426193       -2.77648752570163        1.37716247712303
N            0.40915432996619        1.40756639303933       -0.15282511880694
N            3.07652523312552       -0.81547550060743        0.04863912440778
C            4.45952054621470       -2.72119353047919       -0.23474338435914
C           -1.34767716784995        2.68530296838063       -1.09852451647842
N            5.34275272972887       -3.26319648904262       -0.72278160115648
N           -2.45834618410786        2.78330470145755       -1.36586416354325
H            2.90921582233974       -3.79817369951885        1.60707084685335
H            0.58538267891910        4.45538269450362       -1.53365300274028
C            3.23700687561799        4.37410972604743       -0.96634783355186
H            2.92751725951940        5.27159873368838       -1.48125119512341
C            4.00720978689038        2.07359413755816        0.40363105748659
H            4.31206354952231        1.21662232445641        0.98059175613299
C            0.35051319799948       -0.09714078564758        2.47227861911306
C            0.83821060608368       -2.77687683603109        3.04812234294402
C           -0.13269696385543       -2.09185383097650        3.73067633178909
H           -0.71086266780782       -2.58601509619697        4.49680736584722
C           -0.35665300801260       -0.73890391559570        3.45766739996868
H           -1.09042599251452       -0.19157868828042        4.02880634166973
C            4.55006614217977        4.21112876804204       -0.56738295117930
H            5.27966607396579        4.97696273103341       -0.78015355609734
C            4.92111645742217        3.06906196140184        0.13533953555426
H            5.93769701551822        2.96205623273470        0.48197775937906
H            0.17310747182895        0.95171576995214        2.29126029840219
H            1.04546464038828       -3.81360291911022        3.26748659281898
