59
 energy: -108.578133921050 gnorm: 0.000842747621 xtb: 6.5.1 (b24c23e)
Si          -1.03357909218177       -0.70976772381663       -0.49867131294935
O           -2.59327677149200       -0.78039377984727       -0.06575173428816
C           -3.78907765998970       -0.40466050919351       -0.70284047154352
C           -4.75677756372708        0.13502252409403        0.31628566035506
H           -3.57449179105674        0.36351296800967       -1.45435897608392
C           -4.85680661561542       -0.46235779909795        1.56540337680849
C           -5.57223084080484        1.21483405338921        0.00838023310648
C           -5.76254107733198        0.01481743751471        2.49554914149707
H           -4.20769572247662       -1.29094381696035        1.80507233852544
C           -6.48283628467553        1.68611665959048        0.93710781418365
H           -5.48651512237056        1.68959665471270       -0.95799724541252
C           -6.58056388941572        1.08659487578757        2.18139163110562
H           -5.83137317904719       -0.45227616561261        3.46739470308680
H           -7.11397171634676        2.52742340413486        0.69116881334456
H           -7.29009575233569        1.45744958809920        2.90691202726869
C           -4.38430498582636       -1.64780507555966       -1.40353587895897
C           -3.37886583594406       -2.28945486815093       -2.22230860637676
H           -5.23903905825168       -1.34020623282453       -2.00983229385172
H           -4.72254309113827       -2.35389812080710       -0.63995547047888
C           -2.47630069662101       -2.79364336211571       -2.82599645537848
H           -1.70606265547437       -3.25964756880148       -3.36510352647121
Cl          -1.26840164252643        0.57944328611872       -2.17540481063070
Cl          -0.71403958254898       -2.46799334359619        0.64259352170476
O           -0.32091152329737        0.35708253116973        0.65733358453854
O            0.57974180171578       -0.97163092278812       -1.31389475477757
C            1.86422168733291        0.96152462377629        0.04819504461429
C            2.26710998896869       -0.41418390879524        0.18124193431670
C            1.95775454069835       -2.66230665471384       -0.55034984394602
C            0.06372726325054        2.53397222793288       -0.00620093538913
C            0.89625984234376        3.56857889557792       -0.32851219376835
C            2.77536309936534        2.00351884472988       -0.32079410679417
C            2.28789865211056        3.32889289871196       -0.48715912752918
C            3.33270034362700       -0.84393061882728        1.03289087067831
C            3.71995610499019       -2.21087442285149        1.02751602029947
C            3.01646510685114       -3.11302876736647        0.18874968543239
N            0.55381431904136        1.29023465773220        0.21730628046265
N            1.61288948861962       -1.35242088122349       -0.54969152476644
C            1.22665304635967       -3.51385840317308       -1.41659693329868
C           -1.33176270949558        2.72443565674385        0.15873751985064
N            0.70340009203899       -4.21317033117227       -2.15579190604728
N           -2.44663048542580        2.93255793650034        0.31020824797938
H            3.28786704683029       -4.15524723160616        0.15726172035370
H            0.49055804571090        4.55376870745754       -0.48909599402316
C            3.16939677660270        4.35426100143026       -0.84708950249874
H            2.78424789856388        5.35747618941771       -0.94780091081975
C            4.12468658771787        1.75301097209911       -0.62005870927486
H            4.50598489663808        0.74609557278175       -0.56573798120182
C            3.95452871250775        0.02476234304342        1.94495977114441
C            4.76136244770828       -2.63740239337310        1.86242553690793
C            5.38367355236417       -1.75320270670374        2.71299456913272
H            6.18393337497049       -2.08894700594708        3.35414864884666
C            4.96355656500188       -0.42427954324201        2.76513789816801
H            5.42947230962158        0.25773433970650        3.45960810688297
C            4.50013853242188        4.08645158863890       -1.08050065037483
H            5.17407409806382        4.88217804033089       -1.35707286253464
C            4.96823434395251        2.77798414879915       -0.98612046223670
H            6.00175667791679        2.56087932608644       -1.20808380472293
H            3.63255170552848        1.05262304629281        2.00311010854933
H            5.05781439598205       -3.67472884223734        1.83292717728013
