59
 energy: -108.585721625513 gnorm: 0.000844065572 xtb: 6.5.1 (b24c23e)
Si          -0.94104336521375       -1.88935816159604        0.11997439349191
O           -2.06980757898588       -0.73679036259956        0.27010457610698
C           -3.29868397920598       -0.47669236027273       -0.38541853154620
C           -3.22559682071050        0.98907408155292       -0.75301312580946
H           -3.34516068977721       -1.08666329868488       -1.29730889453177
C           -2.26918248806702        1.35836641239747       -1.69569371852100
C           -3.97390068704145        1.97906443649708       -0.13304327410253
C           -2.06439788102079        2.68738492553623       -2.01274267428080
H           -1.68172625853790        0.58700408260990       -2.17297598909785
C           -3.77617269769642        3.31139399956962       -0.46033219468067
H           -4.71422558161801        1.72323408268293        0.60805863990712
C           -2.82154808218857        3.66977692543913       -1.39504197228289
H           -1.31518643161796        2.95999599972593       -2.74169635408688
H           -4.37120542470578        4.07224211145686        0.02375481530327
H           -2.66672346333253        4.70912398650841       -1.64495659318664
C           -4.45668404209700       -0.87310600736103        0.53663920503873
C           -4.43802039110478       -2.30533596076722        0.75513587905982
H           -5.40137627187292       -0.58173589993140        0.07066730743134
H           -4.34601656030213       -0.37249757656208        1.50208831210245
C           -4.36649536157476       -3.48672582921014        0.92621053432942
H           -4.31601768872491       -4.52275975048419        1.07973983112184
Cl          -0.65816228162336       -3.41902527926880        1.41341636863249
Cl          -1.73920503887910       -2.94400975004413       -1.51382390831545
O            0.37996272791433       -1.44498084651064       -0.90568427195038
O            0.00070608827111       -0.82890121898298        1.46496365432060
C            2.09340597473102       -0.09966339850167        0.00139559682714
C            1.10589232032632        0.87672696293156        0.36051257260733
C           -0.84604694764865        1.31621049172320        1.63111142946418
C            2.49944394020487       -2.34552431424654       -0.70550825331436
C            3.84696004102547       -2.22221101806210       -0.51242823835665
C            3.49565561689498        0.07747281235043        0.23662021180087
C            4.38764716632182       -0.99233224992707       -0.04703965484726
C            1.13627632706339        2.24130617936778       -0.06777069097673
C            0.17580205785785        3.15021839740480        0.44627066174555
C           -0.80244463932338        2.65591094932542        1.34116458922727
N            1.66403077595698       -1.29851224761898       -0.48843671622803
N            0.08282957967120        0.45701242502816        1.14878923677750
C           -1.86345781083048        0.79960343758052        2.46849834585399
C            1.94757308734868       -3.55938758052457       -1.18691875713952
N           -2.70872760471103        0.46405738137792        3.16356747836064
N            1.57188968425239       -4.56101177761738       -1.59119913133619
H           -1.54538850176678        3.31597258679523        1.75751976297747
H            4.49236911405108       -3.06522308696754       -0.69713412737114
C            5.75879608332696       -0.83560845070876        0.17759641410109
H            6.42106218729323       -1.65294357771360       -0.06378543564877
C            4.02316234581761        1.23765458623992        0.82573435125880
H            3.36337773919237        2.04083622852277        1.11133675820602
C            2.02848253036095        2.69273486537026       -1.05298185980304
C            0.19632835982639        4.48869673032139        0.02937005206059
C            1.10870035554893        4.91288561287896       -0.90736134171625
H            1.11729835955306        5.94285074302004       -1.22929463954535
C            2.01237375292169        4.00625136639358       -1.46238219780945
H            2.70266888948881        4.33633857709345       -2.22343586253106
C            6.25338267143039        0.33619060521271        0.70847029262927
H            7.31243213372317        0.45064173226773        0.87887888410300
C            5.37688152939881        1.36212926463806        1.05028311546403
H            5.75801515639346        2.26485728301689        1.50248054653270
H            2.72734811610983        1.99932002509529       -1.49435202267728
H           -0.52691014209577        5.17182771622505        0.44733261485531
