59
 energy: -108.581138115077 gnorm: 0.000261928449 xtb: 6.5.1 (b24c23e)
Si          -1.43762948730903       -1.64832324330086        0.19057122773885
O           -2.25569242082316       -0.29564628246544        0.51641559765391
C           -3.20763235719705        0.61699863291464        0.01228917616714
C           -2.48918691704773        1.67751623326578       -0.78932032748098
H           -3.64225741723006        1.07276420366767        0.91468276503329
C           -1.62982144319663        1.31602677443092       -1.81945000816768
C           -2.64636270353417        3.02221715362853       -0.47859423982933
C           -0.92613256592920        2.28437368187559       -2.51344774263791
H           -1.50752956167365        0.27371417619482       -2.07208336096661
C           -1.95518465721418        3.99036115904617       -1.18549389720736
H           -3.31596659853031        3.30941361567873        0.31995980051674
C           -1.08708181570492        3.62280969878939       -2.19909992301079
H           -0.25449901500136        1.99245071570212       -3.30721201239585
H           -2.09006555461957        5.03360328236762       -0.94064146660940
H           -0.53882325586171        4.37742490871312       -2.74325043544142
C           -4.34941680434477       -0.02389324017210       -0.79053181844143
C           -5.01125589227423       -1.03400715698801        0.00736236346785
H           -3.96070547640989       -0.48082551747234       -1.70125401739850
H           -5.05582259975860        0.76707513665045       -1.05759684027225
C           -5.50795722495916       -1.86118332904477        0.71407972354150
H           -5.95867169552777       -2.59890534682375        1.30737868626775
Cl          -1.57922998808258       -3.21836689083000        1.44658698943031
Cl          -2.39952392405546       -2.43789504270499       -1.49095968021424
O           -0.05354984095167       -1.44699700129914       -0.82147702373266
O           -0.17240812593048       -0.92960879466814        1.60153925972656
C            1.92695099802945       -0.48361604972026        0.03457521249694
C            1.15815200489846        0.62279269471278        0.52399949169375
C           -0.56828800852024        1.30357845478173        1.99587093541591
C            1.86526640650930       -2.73273600593919       -0.77265060189203
C            3.22203770211312       -2.86394310890959       -0.67766492883545
C            3.35163743047042       -0.57137111604860        0.16248197552005
C            4.01047503696542       -1.77074402511985       -0.22297971122883
C            1.39972498371488        1.98765930362343        0.17313333575276
C            0.67225576477148        3.01175908459268        0.83163024467175
C           -0.30094898283373        2.63290328047911        1.78527737475123
N            1.25274123104481       -1.56197594188303       -0.46194168118283
N            0.13848024968614        0.33107055760179        1.37249813771891
C           -1.58265559135261        0.90185081915006        2.89890105423812
C            1.06520925871657       -3.80469967498275       -1.24199765378385
N           -2.40716709941297        0.65144570593001        3.65198640261533
N            0.47579535337437       -4.70282450885910       -1.63494951877427
H           -0.86464789380883        3.38113838032147        2.31807089350830
H            3.68796894373166       -3.80184992841431       -0.93174694854027
C            5.39947226759132       -1.87341643244431       -0.10471669909606
H            5.88157954872785       -2.78518567932717       -0.42290421592420
C            4.12460278108173        0.44737225720511        0.74192556812797
H            3.64636039376575        1.34301505436351        1.10372227325602
C            2.27080760151928        2.34421254066835       -0.86771392174011
C            0.90886501241200        4.35282227229312        0.49651890180125
C            1.80242893317775        4.67558225311564       -0.49630987594016
H            1.97860827439528        5.70903467697895       -0.75230461678460
C            2.46655404186904        3.66609526775573       -1.19370173115360
H            3.13779398648479        3.92380556857802       -1.99844997006717
C            6.13815207598248       -0.83430549530136        0.41983053391393
H            7.20985665458625       -0.92011784827040        0.50815091210404
C            5.49123075843436        0.31588197680747        0.86158278581190
H            6.06265499049540        1.11439569008938        1.30942457508271
H            2.78570176359234        1.57075643558494       -1.41612809954980
H            0.36682447095395        5.12240301342719        1.02426177027492
