59
 energy: -108.490383778511 gnorm: 0.000746910439 xtb: 6.5.1 (b24c23e)
Si          -0.91940169921385       -1.04239376739793       -0.93932040103364
O           -2.69333908141574       -1.07408583119615       -0.51130188716721
C           -3.26263202352847       -0.65911680643105        0.54735101761661
C           -4.64920570696418       -0.35862470648837        0.60314901588597
H           -2.68458977154388       -0.60091142193542        1.47025836934033
C           -5.45395833480511       -0.45056834301827       -0.54897091510974
C           -5.24126098873827        0.03659284783886        1.81739997570181
C           -6.79746160414445       -0.15982981980106       -0.48045110176985
H           -4.98996858363236       -0.75442926800523       -1.47457833983885
C           -6.58632232669744        0.32463093847010        1.87028980030587
H           -4.62643233987384        0.11059821281963        2.70179970423707
C           -7.36960440554016        0.22813387088383        0.72560773520553
H           -7.41088922401294       -0.23386778113853       -1.36601078153317
H           -7.03674800932141        0.62680051385727        2.80402570862870
H           -8.42392391163910        0.45461101446190        0.77437738562333
C           -2.60885619477956        2.16316594297342        0.44157365356901
C           -1.80435867574714        1.57575287058942       -0.39076802804092
H           -2.27148872227712        2.54021856654344        1.39414731814728
H           -3.63574793654030        2.36389661992973        0.18272647841073
C           -1.05458192798424        0.85142197506955       -1.15220850149234
H           -0.46153563520879        1.28778239742290       -1.94024219696013
Cl          -0.43918331123461       -1.93034497710531        0.87769801549219
Cl          -1.33034000739323       -2.12367098430848       -2.59534085306985
O            0.88465858945898       -0.95880446848254       -1.42804459837101
O            1.25638561644540        1.09348765653124        2.18102188890082
C            2.41097690979431       -0.27618501254214        0.19617659831079
C            1.93461496780111        1.08506796093638       -0.00126350298864
C            0.86012337162297        2.95816654950448        0.93770148026913
C            2.25574722647255       -2.54964815738476       -0.45030972620403
C            3.14626368435270       -2.93882833215532        0.51286958316673
C            3.36251206421746       -0.61316941641788        1.19317520608106
C            3.71530780249486       -1.97768446459254        1.38529025459833
C            2.03095937180809        1.74819993238339       -1.25137895802074
C            1.49305974962598        3.05843446415690       -1.38588213794281
C            0.90383857780494        3.64489010647469       -0.25199060099947
N            1.88548097161158       -1.24723178440283       -0.58830415993912
N            1.36330756320824        1.68694246631864        1.07449644038264
C            0.24464820409240        3.52353198892537        2.07685538710823
C            1.69130306410890       -3.50115656753703       -1.33337270380660
N           -0.27363516321872        4.02093066680883        2.96996532752064
N            1.28689344284707       -4.31237805051144       -2.03209813100316
H            0.47755014916992        4.63444837745348       -0.30578122497658
H            3.41016257268415       -3.98065972915770        0.60208819099720
C            4.61821933019691       -2.32762138810227        2.39468798058788
H            4.86200494811141       -3.36943104128041        2.53887714666457
C            3.99920590824763        0.36099248939084        1.98250792555897
H            3.79904496751716        1.40672969956534        1.81551269282511
C            2.67295709983353        1.17095228420128       -2.36283107774389
C            1.55993161952912        3.71527558367289       -2.62801615094527
C            2.15491389988346        3.10728057063484       -3.70208078931621
H            2.19801219318283        3.60860218091324       -4.65675138868942
C            2.72405790732815        1.83612836839405       -3.56167368086206
H            3.21096993162072        1.37602674369956       -4.40765976335850
C            5.18257934149146       -1.35520578340570        3.19026017946358
H            5.87024745354773       -1.62936033038133        3.97549260428569
C            4.88282086650143       -0.01134667321812        2.96864015592690
H            5.35253619591739        0.74659768791078        3.57675613574293
H            3.13090130335622        0.19888329842858       -2.27285805455720
H            1.13099471956621        4.70236105924230       -2.71430870080728
