59
 energy: -108.582226040157 gnorm: 0.000774660487 xtb: 6.5.1 (b24c23e)
Si          -1.25373570226075       -0.25544406594911        0.58442029208231
O           -2.00448890785799        0.70927244074076       -0.46652448445845
C           -3.32820226169736        1.20114658039645       -0.42022849821965
C           -4.32341037402348        0.07071512725837       -0.41865960405940
H           -3.44426256883179        1.80270324616672        0.49048246673114
C           -4.08001455391757       -1.06222107064792       -1.18376826629315
C           -5.47650187094156        0.14217371992220        0.34968221935960
C           -4.97174580302187       -2.11917014402881       -1.16895313804043
H           -3.17640220745281       -1.12465677863927       -1.77231213278002
C           -6.37351077652483       -0.91116235277908        0.35430734325885
H           -5.66050378492964        1.01703492745773        0.95570373195541
C           -6.12130136026935       -2.04400840150679       -0.40128030222880
H           -4.76184778532220       -3.00177827683701       -1.75419053300276
H           -7.26597458601388       -0.85212788342300        0.95972629669159
H           -6.81690876731259       -2.87019359564635       -0.38583618943518
C           -3.51573668886372        2.09180733455710       -1.66021495836638
C           -2.55566246690758        3.17376762412152       -1.67011639236028
H           -4.53123904991473        2.49469255255527       -1.65722005793441
H           -3.37652253525590        1.47799896112495       -2.55374438708013
C           -1.73258773729075        4.04187484187769       -1.65323919739503
H           -1.03722804670292        4.82708661340632       -1.65835044988858
Cl          -1.33003861732929       -2.32039991946718        0.82261949914965
Cl          -2.41396876468690        0.09739485296750        2.32085183317398
O           -0.09135625304576       -0.51276045691093       -0.89341367280896
O            0.10480190774710        0.45687465944787        1.37555317488866
C            2.09163351936478       -0.68039472785731       -0.11909032543890
C            2.05502076991360        0.73777148859221        0.09021555856583
C            0.71192318942868        2.59938251504447        0.75570967284196
C            0.96500731651498       -2.55171533593315       -1.06016494544412
C            2.04015493499793       -3.37548227241646       -0.85646663359667
C            3.20311236565667       -1.51832507916765        0.21100136537295
C            3.17852320734053       -2.88611349414490       -0.16910601911800
C            3.04914932914515        1.63845735598254       -0.41582772488061
C            2.84998110349496        3.03921311355321       -0.27465833182200
C            1.63535659337989        3.49974805872099        0.30300887216784
N            0.99196721319943       -1.25232589263102       -0.67530115018270
N            0.95665881208543        1.26733279759977        0.69998334385418
C           -0.51149116330371        3.03159888199255        1.32547113485112
C           -0.18209739799998       -2.98897040032776       -1.77139259588287
N           -1.48044282807750        3.44133671978235        1.77505848136208
N           -1.04542239146493       -3.36334450499437       -2.42279360594129
H            1.43167227314109        4.55586934615134        0.36937386979093
H            2.00006963396019       -4.39924504473366       -1.19016852633112
C            4.26223081006312       -3.71329159618788        0.15859224679724
H            4.23942591684864       -4.74601007513076       -0.15403508159003
C            4.28070661530411       -1.05368103869703        0.98179998420616
H            4.28330102261739       -0.03143077285591        1.32673219681059
C            4.17573282415990        1.20226250249858       -1.13134526537257
C            3.81511865862847        3.93213105057276       -0.75152454125312
C            4.94122416824977        3.47005724370082       -1.39740523436248
H            5.68284284642477        4.16424631068628       -1.76042421206938
C            5.10376350760317        2.10337284075226       -1.60603236870278
H            5.96314160125567        1.74228644152788       -2.14995625258248
C            5.32447968168298       -3.22012103217741        0.87908931032448
H            6.15351080927519       -3.86304483203280        1.13128943176995
C            5.32194365421279       -1.89207848956187        1.30670618574372
H            6.14055082357951       -1.52016150547576        1.90328208062262
H            4.31836456486433        0.15002923247481       -1.31601148113855
H            3.65741357707632        4.99073165852695       -0.61138303230949
