59
 energy: -108.576282349498 gnorm: 0.000843396721 xtb: 6.5.1 (b24c23e)
Si           0.90235045260565       -0.69949376799604        1.38721343445578
O            1.34759439025392        0.49451741453796        0.41909298524753
C            2.58294561030886        0.90630582848181       -0.16787321094315
C            3.22226642509603       -0.23306234622192       -0.91956335442567
H            2.29375245986649        1.69260076870038       -0.87588922287357
C            3.84031794762431       -1.28025020746748       -0.24547042850287
C            3.14477182121290       -0.27133459492271       -2.30607535908018
C            4.37461319998019       -2.34494143836300       -0.94831719068488
H            3.89808548475564       -1.27846945317358        0.83353141971083
C            3.68128076219735       -1.33715621980796       -3.00716694979954
H            2.65764932326447        0.52932028140020       -2.84224367388227
C            4.29662219523188       -2.37557574563714       -2.33037324670099
H            4.84800142985432       -3.15383293418942       -0.41228712301265
H            3.60903338479300       -1.35592789416611       -4.08372442017740
H            4.71022939002935       -3.21002315621082       -2.87656340233971
C            3.50532878391461        1.51601180003027        0.89589157397409
C            2.84032194072773        2.59088860549445        1.60162489345706
H            4.40148885506807        1.89373007257906        0.39725783112104
H            3.79850507322503        0.75414183387741        1.62051214652234
C            2.25504557818621        3.45501982630729        2.18544922266989
H            1.76485280757157        4.21765235272157        2.71155470671963
Cl           0.82534388746715       -2.47318774808263        0.43468490782551
Cl           1.87421609370827       -0.73469034165873        3.12591244167401
O           -0.63802096051629       -0.32144900931129        1.86879710532051
O           -0.83388312975716        0.17526690446786       -2.31751421471023
C           -2.11140195373696       -0.16148440568053        0.00475074665082
C           -1.46960901546735        1.08860627983549       -0.31397056593073
C           -0.17349691177599        2.30520248328186       -1.86620209683021
C           -2.24478238153558       -1.99643114197663        1.55259676176283
C           -3.12336080120456       -2.66503656835332        0.75852708400632
C           -3.04593198913378       -0.81279154747750       -0.83784304366083
C           -3.54845484002631       -2.09699015039539       -0.47950165641118
C           -1.41778326978518        2.18306880778235        0.59568786197467
C           -0.69820976994159        3.35401514500752        0.23821209451970
C           -0.07373781886368        3.38550530870004       -1.02091307984111
N           -1.77477017964581       -0.75746251726707        1.20331103259931
N           -0.84463827960122        1.16014857950910       -1.52506054077556
C            0.48205332470526        2.30924869652815       -3.11785367510673
C           -1.79010627477500       -2.53767402481715        2.77629024896473
N            1.04915769655594        2.35858320825620       -4.11274306138394
N           -1.43150581898694       -2.99493821008955        3.76373525453842
H            0.48798412963530        4.25223789473444       -1.33325072794839
H           -3.50362250524595       -3.62401051116006        1.07275458790947
C           -4.44565405631732       -2.75497172007481       -1.31763582437148
H           -4.80185064238322       -3.73500403210256       -1.03663762905469
C           -3.54934449805638       -0.20772731496918       -2.00433869652853
H           -3.25246224997907        0.79468248166051       -2.26377398552404
C           -2.11121584056227        2.17809653528344        1.81882271102369
C           -0.64732407461807        4.44292112948489        1.12600913748717
C           -1.30367820752255        4.39020939528267        2.32743109516925
H           -1.26428999408948        5.22602102558325        3.01015225885323
C           -2.04791755707141        3.25570314140219        2.66630208485480
H           -2.58480570259183        3.23153755523911        3.60245632408176
C           -4.87359748864723       -2.16164546568107       -2.48954012818855
H           -5.56120950769564       -2.67988691488442       -3.13972519336422
C           -4.43563116989937       -0.88098494675780       -2.81477054871443
H           -4.80134712482358       -0.40379816278353       -3.71135181976514
H           -2.71257963362957        1.32521402913380        2.09187613482384
H           -0.08550879995519        5.31818210638530        0.83462098260827
