59
 energy: -108.580881396246 gnorm: 0.000769554215 xtb: 6.5.1 (b24c23e)
Si           1.07032733680123       -0.03477050015231        1.60222322659595
O            1.14484069105573       -0.99238792904280        0.33098604894140
C            1.94860641052946       -1.20152779983111       -0.83161376270633
C            2.94915289311561       -0.09334654148939       -1.00581363464882
H            1.23221734669831       -1.18996238273695       -1.66384577058451
C            3.98035086449411        0.09263137741218       -0.09264114788260
C            2.80455363211489        0.79650067623061       -2.06162571355361
C            4.84910301921176        1.15979033201200       -0.23338487127819
H            4.10053661985663       -0.58627036758381        0.73885738464807
C            3.67357782373658        1.86425106302524       -2.19977833082741
H            2.00384627741651        0.65323116024937       -2.77150104166898
C            4.69566559134431        2.04840585128203       -1.28440500029363
H            5.64476504983306        1.29862846785795        0.48323690140934
H            3.54219992148598        2.55357708397454       -3.01988061223618
H            5.37142181288637        2.88432221903654       -1.38690664076971
C            2.59346943425272       -2.58912827157932       -0.72653070222312
C            1.57870150953520       -3.62039348737257       -0.78226898684902
H            3.14442713819948       -2.66915070244218        0.21404628644332
H            3.29025842552952       -2.71484571381416       -1.55881033401973
C            0.70050624004190       -4.43064658378641       -0.83285216175159
H           -0.04232705723418       -5.16791989282983       -0.89192514704769
Cl           1.28756930488118        1.92636622966096        1.22904145209617
Cl           2.23813193697690       -0.59460113207588        3.12514635722806
O           -0.59679141213817       -0.03596824673974       -2.16192319503006
O           -0.50358278836997       -0.27329694447493        2.09643823861905
C           -1.61510637196608        0.65239619703915       -0.22015223995999
C           -1.79744397717690       -0.72870745649121        0.14759884755875
C           -1.37528804140589       -2.42433688037157        1.79542303916192
C           -0.73390403074351        2.20143807950969       -1.77268860168159
C           -1.03300963181333        3.27059134295300       -0.96392640419172
C           -1.99859826402133        1.72784531856102        0.63506406847227
C           -1.67601440613383        3.06196759340358        0.27035733726538
C           -2.37776573289599       -1.70702185146011       -0.69893643632921
C           -2.41746595620869       -3.06917969402109       -0.28534480918725
C           -1.90186264473477       -3.39630165512826        1.00358453034091
N           -0.98996862947259        0.90544724176009       -1.40728380227228
N           -1.35986880583991       -1.11489360535172        1.39841728312766
C           -0.83603226396837       -2.72435213705447        3.06687804093572
C           -0.10510862069002        2.39887552993331       -3.02296455924853
N           -0.40969087303475       -2.99845028606393        4.09438777665970
N            0.38951733999498        2.60859760971241       -4.03526088688497
H           -1.93472254164442       -4.41338333655309        1.36075228941349
H           -0.77683987073504        4.26671767754295       -1.28813614407940
C           -2.01853372582209        4.12267374878926        1.12632243107593
H           -1.74067849268237        5.12630408521492        0.84156004251957
C           -2.73401501762791        1.52144130017323        1.81492280893775
H           -3.05071794634814        0.52548527029074        2.08277135771306
C           -2.98112519275545       -1.37109211233074       -1.92485729758901
C           -2.96661858878967       -4.03763044070935       -1.12263902111561
C           -3.49164282699622       -3.68704691430675       -2.35123198891142
H           -3.90613830814640       -4.44311359024020       -3.00000628554802
C           -3.51156483232172       -2.34963861832236       -2.73560102772162
H           -3.95860631893528       -2.07220819729042       -3.67813355812638
C           -2.69234980929067        3.88190854908111        2.29504452399645
H           -2.94995864522760        4.69685156151891        2.95408855011243
C           -3.06802986578156        2.57682906346868        2.62706053177236
H           -3.62966608025207        2.39775009185233        3.53127910281062
H           -3.04522386158671       -0.34057755026858       -2.23134966895555
H           -2.98249218721797       -5.06686089964714       -0.79427567269137
