77
 energy: -129.339834851615 gnorm: 0.000357186589 xtb: 6.5.1 (b24c23e)
Si           0.93576413115224       -0.00703996409968       -0.63950126603896
O            1.61001144228524        0.54425513500423        0.72861727028063
C            2.87458136035370        1.11703855975389        0.94922478898054
C            3.98225357921185        0.20187584388278        0.49606127396492
H            2.93253699958349        2.06695544866376        0.40127938305099
C            3.85265063896586       -1.16930230238946        0.66861213938718
C            5.13003069219477        0.71009656006520       -0.09400175147941
C            4.85101236713292       -2.02491706760442        0.24134475351372
H            2.95241866595567       -1.56547350526188        1.11461595250244
C            6.13362663095827       -0.14587241057095       -0.51066697694103
H            5.22586210779913        1.77548533396294       -0.24392644025770
C            5.99518688951764       -1.51389908520252       -0.34661737338899
H            4.72814661570720       -3.09112407807865        0.36332608766291
H            7.02122166513145        0.25547348754578       -0.97722912732107
H            6.77489388688928       -2.18063776965149       -0.68469847682345
C            2.99239347846211        1.37486316263141        2.46468712179299
C            1.86278630425432        2.13025763530950        2.96036129836182
H            3.92315563334920        1.91182120650063        2.66313790176798
H            3.02180433682465        0.41030995041761        2.97822311482775
C            0.90306207911500        2.72970594400116        3.35076683346477
H            0.06834389588053        3.25643472515769        3.70698081033567
Cl           1.20573547651081       -1.73913101395541       -1.74516893373093
Cl           2.19878841244862        1.11692875385747       -2.00132758072133
O           -0.13223245499786       -0.88485607456447        0.54953706915458
O           -0.44935938970018        0.82194595083523       -1.22932715719404
C           -2.34518795450506       -0.78494138931761       -0.11285181523579
C           -2.29857504140077        0.61912054188482        0.19881803492462
C           -1.12970684644792        2.69804487067141       -0.04442899859024
C           -1.19532139257515       -2.87939215482005       -0.01133937309875
C           -2.31305739866666       -3.53894547369555       -0.44810754174444
C           -3.50985014873586       -1.42823059253904       -0.62496348783640
C           -3.49130702625417       -2.83586512834358       -0.79885109981445
C           -3.21832377315203        1.23225481398908        1.10368036827702
C           -3.06438878842621        2.60984316227978        1.41147826325227
C           -1.99199215231967        3.32010251331418        0.81086718708269
C           -4.64368011235173       -0.71097824435103       -1.04504026848668
C           -4.62523934942744       -3.48161205458458       -1.31172647834101
C           -4.21277400503223        0.50679034310436        1.78383391210710
C           -3.94751376700338        3.22376574458302        2.30740737837810
H           -1.85547512156985        4.36765603389537        1.02467324882080
C           -0.03771936814865        3.42429392554275       -0.71274206197327
N           -1.22880553520584       -1.52965287020057        0.11750332012180
N           -1.30452819817550        1.38579393847849       -0.33278731402769
C            0.02042027096054       -3.60841945634832        0.37826266922669
H           -2.29275969382640       -4.61356738136758       -0.52552218292016
C           -5.73625999194479       -2.75905047368729       -1.67834327157686
C           -5.73625117999802       -1.36880327265919       -1.55811052299293
H           -4.65023251361694        0.36484224540057       -0.96418665709648
H           -4.60597064119824       -4.55556976710093       -1.42076092225740
H           -6.60494061624747       -3.26279994715322       -2.07420576801690
H           -6.59924873749249       -0.80416102793142       -1.87660097795346
C            0.51230417213034       -4.61331598092257       -0.45143523984136
C            0.67201423640766       -3.33505166642153        1.57746336058752
C            2.30206928166919       -5.02842103992752        1.08936374867742
C            1.80723585299587       -4.04389765477333        1.92708023518688
C            1.64965050376924       -5.31294934514491       -0.09912741631798
H            0.02151360676988       -4.81249704267501       -1.39107005299719
H            2.03359022707167       -6.07763206216113       -0.75756418223685
H            3.19446461975770       -5.57281336897951        1.36174259090042
H            2.30980290206636       -3.82307491867835        2.85770000958612
H            0.29293248358999       -2.56801209318685        2.23506703019325
C            0.02101266325143        3.49191807071766       -2.10093110096261
C            0.92941320441873        4.06971028055299        0.05005223039926
C            2.01531369288853        4.81521186727194       -1.95518475161948
C            1.95660323863711        4.75422177731298       -0.57339186974352
C            1.04309972278649        4.18921623506889       -2.71594518633740
H           -0.72795644123393        2.99103240146913       -2.69536968171347
H            1.08943909703006        4.22864733156104       -3.79320183814354
H            2.82328311422998        5.34281425830642       -2.43933696795006
H            2.71672377655655        5.23560023147464        0.02479097860396
H            0.89310223823475        3.99781525640706        1.12695610318592
C           -5.06020515692669        1.13271687839769        2.66863175765038
C           -4.94377239830723        2.49817517339344        2.92098512122608
H           -3.82967386882345        4.27760239016122        2.51161299506109
H           -4.31191563861096       -0.55292993350702        1.61169316317188
H           -5.81930902474775        0.55691388929567        3.17598596433407
H           -5.62208946784423        2.97932873975208        3.60890764371975
