77
 energy: -129.336973288029 gnorm: 0.000625241977 xtb: 6.5.1 (b24c23e)
Si           0.65852496706357        0.65754488660829       -0.43490679109448
O            2.24906257524864        0.98130687007563       -0.51230332612951
C            3.14068323151042        1.75993391156267        0.24281450779334
C            4.36569185670186        0.94488689907583        0.56878136409549
H            2.65446198708755        2.09978148963351        1.16391416372460
C            4.97900533273451        0.19384072847515       -0.42533595672305
C            4.92459369120903        0.98067649866080        1.83828838227022
C            6.15010923472930       -0.49090009224027       -0.15845656623063
H            4.52356897615073        0.14272328046507       -1.40252617112106
C            6.09249348453950        0.28796026373687        2.10640416895315
H            4.44459682823399        1.55653396092851        2.61685720147498
C            6.71262889880444       -0.44068544791706        1.10614062931800
H            6.62873815358259       -1.05982516698937       -0.94217301409482
H            6.52191342691716        0.32185911214951        3.09741613484497
H            7.63086841426422       -0.97110433857995        1.31399774101207
C            3.56663828618007        2.98841308825238       -0.58854693117694
C            2.43260280948019        3.83106432377555       -0.89300718594615
H            4.31279137063451        3.55407952855402       -0.02401454448027
H            4.01569383017336        2.63663945700016       -1.52103366257898
C            1.46379222021393        4.48671065966170       -1.14217684211342
H            0.62532631065507        5.07809579370571       -1.35654513641931
Cl           0.93110669796531       -0.37791721281812       -2.27255549112355
Cl           0.22511303711628        2.08603777560426        1.13504347375859
O            0.33416673013241       -0.65951621404681        0.61076944266752
O           -0.99303866325484        0.81782277642990       -1.03073705806108
C           -1.72357552519048       -1.57438035471522       -0.00247311343355
C           -2.37336520700181       -0.35617529788802        0.41987259327991
C           -2.65797977228641        1.99943652102684        0.11054439342449
C            0.31395262075884       -2.80524694661504       -0.28044756484519
C           -0.36948077724590       -3.87862003874147       -0.77797549193133
C           -2.46916845181904       -2.66575071281014       -0.53915326235529
C           -1.77844227884462       -3.84285839414571       -0.92972767081265
C           -3.40878011211258       -0.36761031428206        1.39941387637064
C           -4.07893799059047        0.84502747173601        1.70399408435500
C           -3.68882590240751        2.01675649681511        1.01007264891696
C           -3.85168843796349       -2.58909156309387       -0.78910192613855
C           -2.49381896605744       -4.91910363341889       -1.46970837814087
C           -3.73122983020182       -1.51826569264105        2.14181134424262
C           -5.08944341862373        0.85199722926277        2.67451421738131
H           -4.21053230882864        2.94141850316778        1.19461844903173
C           -2.28914603101216        3.21321657848735       -0.63039508028553
N           -0.37301037639286       -1.70476983011589        0.10697636488465
N           -2.02342930873757        0.83121998911303       -0.14976057678832
C            1.77075685003626       -2.84632270226730       -0.09408207081806
H            0.17563746070477       -4.76301693797969       -1.06352282014686
C           -3.85389701093669       -4.83339198976225       -1.65854219579792
C           -4.52694638454416       -3.65633741952825       -1.33216385317596
H           -4.38698362068714       -1.68312957187701       -0.55299328950110
H           -1.95557173062406       -5.81450893564259       -1.74176034655158
H           -4.39872775116105       -5.66669009928221       -2.07520121742191
H           -5.58815928669676       -3.57880745093256       -1.51378990977184
C            2.57733209959366       -3.26646298588379       -1.14775579918911
C            2.35053558186251       -2.53600408328483        1.13271028041404
C            4.51061483979221       -3.11040983539512        0.26291347033881
C            3.71513202182475       -2.66997141008884        1.30643548748307
C            3.94123912490239       -3.39344080638907       -0.96739227814074
H            2.12889050074201       -3.46315084917231       -2.10892107804851
H            4.56183284597682       -3.71713774404437       -1.78965320003825
H            5.57324759797217       -3.22865789077880        0.40975621129695
H            4.15998355119804       -2.43070592841610        2.26063731432224
H            1.73285757802411       -2.20457328064817        1.95326438197112
C           -2.13536733270977        3.19480075431819       -2.01409073336428
C           -2.17327695780663        4.42057080939387        0.05492393832944
C           -1.78167401427678        5.56979789443931       -2.01431262810641
C           -1.91903777002890        5.59068384903019       -0.63450667022556
C           -1.88374777093305        4.36984794336732       -2.69875251814895
H           -2.22082706490915        2.26586311681837       -2.55604460346444
H           -1.76647046622534        4.34709987973702       -3.77190598137423
H           -1.58516703838650        6.48575671110517       -2.55332719761239
H           -1.82150801930302        6.52125569887539       -0.09450748461336
H           -2.25479945572980        4.42926310393570        1.13067831703118
C           -4.71873098913732       -1.48022135148126        3.09720501585107
C           -5.41288300640911       -0.29807431579380        3.35641524637061
H           -5.60385512228092        1.77830006984841        2.88186528375571
H           -3.19552432315942       -2.43649807768998        1.95845402951316
H           -4.95418249702756       -2.37248483980228        3.65722082133916
H           -6.19165205324228       -0.28569416758443        4.10365763768916
