77
 energy: -129.339789781879 gnorm: 0.000399460176 xtb: 6.5.1 (b24c23e)
Si          -0.05188389423722       -1.44857598179314       -1.10149395596472
O            0.58462045264893       -2.37446691261367        0.06886340728873
C            0.32538396650159       -2.42721775643076        1.45924668481682
C            1.22472385987988       -1.44932961348282        2.17223649996924
H           -0.71910556628759       -2.16002175760677        1.63524333885557
C            2.60442164718708       -1.60646928950475        2.13146022559349
C            0.69195271425896       -0.35756973223460        2.84461321898717
C            3.43113018786414       -0.69877129098752        2.77025947437578
H            3.02647076765739       -2.43947188609291        1.58990201280683
C            1.51852926568768        0.55760509646586        3.47211459464040
H           -0.37903328634325       -0.22221756258732        2.87455370724654
C            2.89119325443751        0.38524200195672        3.44096977630784
H            4.50276126266675       -0.83970853466777        2.75193806357593
H            1.09167865161372        1.40675425492473        3.98585468507236
H            3.53628053252989        1.09517464991063        3.93698193045518
C            0.54433119510651       -3.87741184829764        1.92231578034097
C           -0.57468778052173       -4.69729133311286        1.50918260844672
H            0.64024653537683       -3.89913599078905        3.01154109460354
H            1.46051878507925       -4.26228431338102        1.47054562331219
C           -1.53286646931094       -5.31844223993531        1.15278888051648
H           -2.35318972323562       -5.88871649574400        0.83467856656064
Cl           1.12438215255416       -2.48811715514787       -2.51832106501813
Cl          -1.80367436360788       -1.66933668506604       -2.17310225975307
O           -0.97293034187552       -0.50147063722683        0.22843710907934
O            0.63658515693956        0.05407813184921       -1.58602240399645
C           -1.07615859478383        1.74846361572520       -0.27693416867632
C            0.34318111389174        1.80153949557575       -0.04143478507348
C            2.52171476861848        0.94455976610703       -0.56172390038602
C           -3.06703209166948        0.43165003225116       -0.16294233724909
C           -3.83340000521541        1.51253165719302       -0.50307031376747
C           -1.83461989359803        2.89074949713332       -0.66967079766411
C           -3.24212205538508        2.76576903149653       -0.79603979163634
C            0.91542870201950        2.71201983064526        0.89738343586549
C            2.32254345749161        2.72278428100154        1.07619770088596
C            3.10456300694913        1.82693644142662        0.30286262217602
C           -1.23129156555923        4.10966197176418       -1.02531915818282
C           -3.99919577383850        3.87416031369883       -1.20101643598055
C            0.13128506946647        3.53063918762528        1.72919302423222
C            2.89665931176640        3.59323364511896        2.00917132649975
H            4.17804219492791        1.84171341300231        0.39350040425769
C            3.33137787103005        0.04377989526446       -1.39541179120714
N           -1.71938156693311        0.56451996139375       -0.09413356323806
N            1.17113616038206        0.93713543742459       -0.69752161010149
C           -3.67066790499856       -0.85774034539246        0.20717285011017
H           -4.90486442418930        1.40401826448918       -0.54196325573700
C           -3.38616120229673        5.06606161257383       -1.50736318332524
C           -1.99711436702344        5.17602822816506       -1.43259693991691
H           -0.15748789823778        4.20357808400037       -0.98004209910146
H           -5.07135291443170        3.77082301984151       -1.27423721295166
H           -3.97514663494959        5.91460265954032       -1.82055223073142
H           -1.51859404109496        6.10478758961675       -1.70359010349175
C           -4.59291981508583       -1.46494122495410       -0.63929264133373
C           -3.35361419124041       -1.46288149465692        1.41881713431615
C           -4.82439308625929       -3.28392232347750        0.90800930051799
C           -3.92421318538460       -2.67399121495370        1.76395588853795
C           -5.16232806154960       -2.67393585024970       -0.28906520104030
H           -4.82852329397141       -1.00219305743779       -1.58452141851558
H           -5.86638511777279       -3.14663224297192       -0.95719252810945
H           -5.26530755992541       -4.23263944722519        1.17583831574745
H           -3.66112547129029       -3.14245954802808        2.70067948835030
H           -2.67109008159911       -0.97622912144896        2.09993163208089
C            3.15641551152649       -0.01074384189429       -2.77513185022974
C            4.32898608471379       -0.72534033106648       -0.80319894637426
C            4.92910634471614       -1.61778026200899       -2.94540174037234
C            5.11600020966965       -1.55842158752157       -1.57458146917434
C            3.95508797922234       -0.83713613409937       -3.54238053987002
H            2.39545233568249        0.59056757233056       -3.24734160529199
H            3.80519101713829       -0.87984590088933       -4.60975670301573
H            5.54014005616391       -2.27413924049597       -3.54635666104575
H            5.87519791303434       -2.16589610700123       -1.10393463435239
H            4.46394032549278       -0.68002247737083        0.26635849726492
C            0.72038528558064        4.36614960798218        2.65015879742133
C            2.10658100358131        4.41321980767078        2.78338396214726
H            3.97105900430391        3.60400898727327        2.11504305260922
H           -0.94378393455568        3.50098007644398        1.64730590783268
H            0.10006573799763        4.98670597178308        3.27919166606520
H            2.55609030489570        5.08028967917275        3.50312901209880
