77
 energy: -129.341461344604 gnorm: 0.000244113267 xtb: 6.5.1 (b24c23e)
Si           0.10260928358089       -1.38220301000976        0.43843264803933
O           -1.47689177213923       -1.20442205527785        0.09482393339589
C           -2.43601199116964       -2.12324640666244       -0.36057199508987
C           -3.28647418744561       -1.50640761646059       -1.44388756446547
H           -1.92052308971853       -3.00473160059820       -0.76367121993079
C           -3.13082606957196       -0.18090600019893       -1.82156316710481
C           -4.25205700097690       -2.27589742610698       -2.08452878787252
C           -3.93666803678968        0.37528440690715       -2.79988002283069
H           -2.36446426739668        0.41363794765435       -1.35140857240191
C           -5.05887078202613       -1.72098238420811       -3.06029308878280
H           -4.36452652662527       -3.31887822666526       -1.82641448592784
C           -4.90935236087284       -0.39058367769559       -3.41677134489202
H           -3.79956057950633        1.41029944599160       -3.08039817302293
H           -5.80591749080489       -2.32995984660894       -3.54821985265559
H           -5.54189251874374        0.04181118230301       -4.17806228211232
C           -3.31721957923449       -2.57276385776085        0.82456358636896
C           -2.50982371336541       -3.13670013422419        1.88388233282858
H           -4.03372732607924       -3.31800812057098        0.47301690716834
H           -3.86344147942873       -1.70877067662448        1.20918857624800
C           -1.81170977143441       -3.58732845976738        2.74433688741131
H           -1.19277253750170       -3.97936493108414        3.49441712094348
Cl           1.01489807667815       -1.97556762125328        2.18479222380014
Cl           0.38273393306588       -3.29991190788640       -0.50833627124986
O            1.07419967859047       -0.65768556139237       -0.79318233146717
O            0.06670241180743        0.23693922896365        1.27815249186749
C            1.85482410098445        1.48380738985258       -0.22790133187078
C            0.49452663078285        1.94762725532303       -0.21295658546815
C           -1.66190779120694        1.74387883258135        0.79768077511615
C            3.34474657130393       -0.38527130771584       -0.39577848803471
C            4.42277116269523        0.40796279776802       -0.13520878627287
C            2.95702162022558        2.34632990519917        0.06075488308819
C            4.26667535474675        1.79978396965982        0.09476844526859
C            0.05137684998021        3.05665734455022       -0.99232340118816
C           -1.27158095883079        3.53095634064041       -0.80798970805616
C           -2.09458566864742        2.86207939228522        0.12941356551673
C            2.79264233026782        3.69760166294521        0.41521795928019
C            5.35801243738034        2.62758298276609        0.38455875007684
C            0.84734723518845        3.64537209174565       -1.98970293719320
C           -1.72444293925002        4.62317419820946       -1.56131612134754
H           -3.08819322836995        3.23481209132623        0.31582464687168
C           -2.54897051052516        1.05563853795434        1.74488861383157
N            2.10633599323439        0.16341863765688       -0.45675153046482
N           -0.39245832716291        1.30917207401731        0.60241221392026
C            3.48144284998207       -1.82866887340737       -0.65590068638505
H            5.40435888054368       -0.03525731696675       -0.09930839628480
C            5.17112896481319        3.95952494097665        0.67519932231399
C            3.88070651948615        4.48562595338527        0.70904706068701
H            1.80256641851760        4.12191853917497        0.46052429014766
H            6.34837819562414        2.19782657030019        0.38324959154944
H            6.01701424218936        4.59205852135076        0.89668431472308
H            3.73114515482269        5.52103192602217        0.97496792357490
C            3.93511607173587       -2.66947526482064        0.35371655728301
C            3.17126446826959       -2.35070427314399       -1.90647885143846
C            3.75531552886481       -4.54300147427801       -1.13273119915065
C            3.31487174526895       -3.70468229998697       -2.14225274952562
C            4.06218626130295       -4.02494549700123        0.11376748627542
H            4.14986709928398       -2.26232414237646        1.33010610134476
H            4.39160321676037       -4.67835285503897        0.90724515608193
H            3.84760861190615       -5.60311111335929       -1.31482300057451
H            3.06520238344580       -4.10743490051409       -3.11202753706466
H            2.81106427516190       -1.69655445932534       -2.68659397791463
C           -2.09844755944198        0.58929271023525        2.97749398753660
C           -3.89991274873491        0.92068681417003        1.42325309678313
C           -4.31850244980273       -0.13779876660995        3.53582071959771
C           -4.77641199769960        0.32996581535513        2.31402527376580
C           -2.97923263618146       -0.00894707213260        3.85975285314957
H           -1.06106504746155        0.69280539519070        3.25052815316470
H           -2.61467369300640       -0.37534464103302        4.80696916052462
H           -5.00264474552282       -0.60698225127138        4.22680872258195
H           -5.81875570984086        0.22607137419529        2.04869051933709
H           -4.25823769606188        1.24777663452561        0.45837053565730
C            0.37260699149166        4.70554122085084       -2.72574740059696
C           -0.90889659008235        5.20943593923234       -2.50095974082086
H           -2.72646383999158        4.98960250586910       -1.39517676085941
H            1.83722481817589        3.25878622882766       -2.17562920704158
H            0.99555677067047        5.14846730003504       -3.48775981355418
H           -1.26323192017864        6.05005892404022       -3.07796301619921
