77
 energy: -129.338457640672 gnorm: 0.000595702398 xtb: 6.5.1 (b24c23e)
Si           0.61137173995361        0.71345357011020       -0.18860432165988
O            2.18002651092027        0.76724911960567        0.30552342928325
C            3.29099908500285        1.40350406184789       -0.25628360255910
C            4.53925495318164        0.96199190721714        0.46223467552119
H            3.35258948537533        1.13192858607891       -1.32025425035822
C            4.51277745367603        0.74140554440304        1.83199158630913
C            5.73488121870707        0.81967378143030       -0.22789709714549
C            5.66661143095821        0.37659727663238        2.50208833730964
H            3.57616009418548        0.84443092281031        2.35752369073852
C            6.88981328090537        0.46032580131941        0.44404021561378
H            5.75716524230061        0.98800829462149       -1.29528853774252
C            6.85790046347204        0.23726245874059        1.81041245271611
H            5.63852278517094        0.20424921282959        3.56856221904597
H            7.81682642078736        0.35054524069897       -0.10021396437728
H            7.75968885425803       -0.04543586763204        2.33410113286460
C            3.17159455330097        2.94037113641617       -0.14212893652230
C            2.12206070935963        3.44952305138880       -0.99417310709937
H            4.12803802972008        3.38961009823974       -0.42139913167383
H            2.94880503396256        3.19184668433688        0.89810205980865
C            1.23446394760019        3.82342979240317       -1.70424642535785
H            0.45467701438995        4.16208302991607       -2.31748132541320
Cl           1.05754018588630        0.35294389386691       -2.21013710811924
Cl          -0.00205677746764        2.14049909969112        1.23154607092921
O            0.25495729459079       -0.71308789003462        0.68742100830944
O           -1.08974259716364        0.69624186525313       -0.89034103449628
C           -1.70282361619048       -1.76180434004795       -0.04297220005351
C           -2.44577154025648       -0.62697737898944        0.44176809018913
C           -2.85339663448598        1.71937387585508        0.23630781709567
C            0.45683908354480       -2.70433447938395       -0.49173924842818
C           -0.10771100268271       -3.78815506152669       -1.09865996565498
C           -2.33186548136652       -2.87964485469462       -0.66922747803038
C           -1.51829973687647       -3.91633242214622       -1.19922453929629
C           -3.49844529746223       -0.74219067612674        1.39520394725666
C           -4.23865741389757        0.41736359199707        1.74155668609033
C           -3.90206208759737        1.64001850498664        1.11132397962520
C           -3.72116586220123       -2.95238499592169       -0.87685237457724
C           -2.11665091055904       -5.01285866093427       -1.83059262102151
C           -3.77204014691104       -1.94449909598679        2.07153141304991
C           -5.26878071078584        0.32010413018674        2.68762223127405
H           -4.47848331782181        2.52580473819976        1.32183854232614
C           -2.53507161284013        2.97228510331687       -0.46368618792649
N           -0.34150569375063       -1.74542971651428        0.03513381009326
N           -2.14139911480886        0.60401493931783       -0.05344679148619
C            1.91407865674912       -2.55850964763911       -0.34494789534688
H            0.53038623556403       -4.55463936034035       -1.50673147904901
C           -3.48405860376748       -5.08059672247403       -1.97554750448361
C           -4.28176526020637       -4.03605733519225       -1.51206121241450
H           -4.35411068641582       -2.14898612477541       -0.53549186207629
H           -1.48379618594403       -5.80165461296533       -2.20867771681904
H           -3.93779397592856       -5.92971477707316       -2.46328109356187
H           -5.35073628793022       -4.07299150842956       -1.65760502489594
C            2.72241742291720       -2.55034421522528       -1.47610556872495
C            2.49103526413681       -2.45674235610395        0.91657613336967
C            4.66692452965191       -2.35113336158331       -0.08534396150480
C            3.86361408593602       -2.36278165138516        1.04207095622208
C            4.09380366811247       -2.43616576906168       -1.34257243535870
H            2.26885415736282       -2.60102497703235       -2.45406963941642
H            4.71666488839372       -2.41297402924791       -2.22425395646036
H            5.73807004550455       -2.26631624863946        0.01855999707911
H            4.30916055923417       -2.29107243414004        2.02244537390050
H            1.86372107948727       -2.45658161747956        1.79491507516643
C           -2.41244589908874        2.99860991535942       -1.84945531572369
C           -2.41411314238035        4.15606081918715        0.25860455475021
C           -2.05373647383032        5.37158935055990       -1.77752763551907
C           -2.16564681009471        5.34650028474821       -0.39675297515436
C           -2.17840848062021        4.19665031338199       -2.50032482107386
H           -2.50312863199884        2.08578621845398       -2.41808597086528
H           -2.09038788000036        4.20940874078024       -3.57747042129109
H           -1.86202206316037        6.30434852823414       -2.28810443932443
H           -2.05659137684659        6.25867338247638        0.17047417333834
H           -2.47981618729227        4.12690995537730        1.33468515414350
C           -4.77900021074584       -2.00770607083363        3.00474684224922
C           -5.54197822012587       -0.87810564730232        3.30418781267947
H           -5.83805273110335        1.20550610575323        2.92757823303234
H           -3.18190456512644       -2.82099919626114        1.85354492426785
H           -4.97743047538914       -2.93793410924812        3.51506347005903
H           -6.33616176114283       -0.94542671566062        4.03210808234987
