77
 energy: -129.339684473228 gnorm: 0.000424859473 xtb: 6.5.1 (b24c23e)
Si           0.56568991933173        0.80233471255402       -1.14247087794612
O            1.31871681301703        1.72705476395803       -0.04924964029553
C            2.02412591623274        1.43727692280106        1.13178334243109
C            3.51452338777485        1.54165048025295        0.91184808602084
H            1.79700853934067        0.41421276929382        1.44722653443297
C            4.04037441148235        2.02132168055579       -0.27763286725152
C            4.37882759108434        1.12227328658240        1.91706651871242
C            5.41153844891458        2.07039477333799       -0.46329549570320
H            3.37199978585681        2.35126825193383       -1.05728347202641
C            5.74742253425507        1.17760821834625        1.73261833621417
H            3.97386660341975        0.74584284427099        2.84674291113354
C            6.26749327312125        1.64819931596089        0.53816837723184
H            5.80996155082015        2.44031693929862       -1.39621217237356
H            6.41054563523498        0.84838883800418        2.51994741604105
H            7.33698737615169        1.68528666782882        0.39119314953276
C            1.52927968401456        2.41572851937121        2.21742173981775
C            0.28980105151035        1.94050272165816        2.79158219562606
H            2.28216184698388        2.51284116269339        3.00301474772686
H            1.37631675220618        3.39055246785735        1.74783061295360
C           -0.72131045365494        1.48453496530634        3.24235984703394
H           -1.61117929859108        1.10970240503864        3.65299240223030
Cl           1.40066206074230       -0.47654239359439       -2.54090541854500
Cl           0.51924639460871        2.44606290818540       -2.48183157183132
O            0.49364622207021       -0.58744401339618        0.11153947158500
O           -1.14162889913862        0.70767757510444       -1.23958917362850
C           -1.40588403833533       -1.85664291228603       -0.26923745345813
C           -2.17103785443404       -0.76971812862308        0.27959932538325
C           -2.56279524690053        1.59569432587184        0.35853267965433
C            0.77450128749744       -2.78025193953414       -0.59319510968491
C            0.24240196246339       -3.95614557702196       -1.04370547646478
C           -1.99980379348387       -3.04475341503808       -0.78953562383775
C           -1.15744137925628       -4.11120361386463       -1.19582981750769
C           -3.10450526228968       -0.96652939135808        1.34396094826541
C           -3.78269478445093        0.15893255545180        1.88193305477012
C           -3.47739953145121        1.44353957704462        1.35924207918258
C           -3.38473978116693       -3.16031248941565       -1.00147919772148
C           -1.72842879829738       -5.27550226734313       -1.72901508229841
C           -3.30833987483184       -2.21722709825314        1.95400852615114
C           -4.69215808608270       -0.01405153591649        2.93186168474929
H           -3.96640458986217        2.31599937527694        1.76087151027149
C           -2.23644623839240        2.92017375273984       -0.19522334509939
N           -0.04927437135897       -1.75547341167135       -0.26312325598654
N           -1.95499793354904        0.50255031613778       -0.16583361570089
C            2.22003380371628       -2.60849445853654       -0.37764098240003
H            0.90256732471308       -4.77165736898242       -1.28915710900494
C           -3.08990231759759       -5.37677794728721       -1.89004356591598
C           -3.91624447811656       -4.30856834146558       -1.53814225404843
H           -4.03131955461205       -2.33624461894797       -0.74268099828376
H           -1.07712404539073       -6.08659366255070       -2.01794654780728
H           -3.52226620350772       -6.27557119791497       -2.30270958368269
H           -4.98156563171417       -4.38200950157447       -1.69518042539879
C            3.11844833913685       -2.87477532032734       -1.40560332225343
C            2.69962971624134       -2.20851463349443        0.86549862829811
C            4.94668707847842       -2.28633295569680        0.03228031045266
C            4.05861853443614       -2.05463842873913        1.06793023371007
C            4.47426181173419       -2.70226758276852       -1.20148236485230
H            2.74315762308177       -3.17626019845197       -2.37064904185204
H            5.16436832554900       -2.88831948928047       -2.01046218037065
H            6.00538033143582       -2.14382605622586        0.18869876074588
H            4.42582243777042       -1.75088845758469        2.03617252371953
H            2.00843465480046       -2.03187327231458        1.67711029319010
C           -2.44895292627046        3.20784430034504       -1.53888258716409
C           -1.73234108490302        3.90401342400233        0.64964665874638
C           -1.63104918959563        5.43523698170923       -1.19371045347721
C           -1.42348887343506        5.15369842068906        0.14631715802137
C           -2.14929471021281        4.46380201299441       -2.03193331126998
H           -2.84101946704717        2.44777268716522       -2.19702182409332
H           -2.30558745732387        4.67647653198287       -3.07781714180431
H           -1.38253746319551        6.41001847771367       -1.58556676642491
H           -1.01574674281361        5.90897072667996        0.80239528638739
H           -1.55955179007877        3.67056484641224        1.69015406567096
C           -4.19840170028552       -2.35765109898295        2.99409692333185
C           -4.90959408221266       -1.26061425005479        3.47550745249671
H           -5.21419136048398        0.85113996223165        3.31306347551948
H           -2.75941189821789       -3.07745742245936        1.60593502316174
H           -4.34032258409590       -3.32826026033441        3.44457101182225
H           -5.61259425260138       -1.38587075335620        4.28474082502756
