77
 energy: -129.339313754934 gnorm: 0.000317553477 xtb: 6.5.1 (b24c23e)
Si           0.08481320272299       -1.10622051667790        1.38283835077219
O           -0.94070340140145       -2.07303320543291        0.58842381537789
C           -0.97777556320059       -2.53846038986828       -0.74888508776160
C           -2.07339235766799       -1.79323652323984       -1.47239975223283
H           -0.01909758879493       -2.31975118421525       -1.22572566776863
C           -3.40752838886975       -2.16565370366533       -1.37188651259090
C           -1.74812426687851       -0.65905684024690       -2.20715134180709
C           -4.39071024038782       -1.42688828061841       -2.00879420654731
H           -3.68570264304699       -3.02875450177283       -0.78794708414579
C           -2.72964545911378        0.08539742854469       -2.83621329261039
H           -0.71382092782731       -0.35651922428774       -2.28047768690322
C           -4.05583527285742       -0.30036818224811       -2.74111021707202
H           -5.42474841837405       -1.72976199251296       -1.92713360189973
H           -2.45894027495925        0.96523493807191       -3.40211264678322
H           -4.82513619040897        0.27639450801920       -3.23337055875123
C           -1.16730066534358       -4.06156640382208       -0.70707169149383
C            0.05953805767685       -4.68362705916893       -0.25428094729824
H           -1.42991198453565       -4.42567257266885       -1.70389501465056
H           -1.96640192665419       -4.30591642958782       -0.00435763999099
C            1.10083191249961       -5.12700689625337        0.13302788360275
H            1.99996513610855       -5.53973687941254        0.47980449572069
Cl          -0.86140594995808       -1.60740058631344        3.20391084314383
Cl           1.98127901921573       -1.48925496287835        2.10811310675875
O            0.84370342881329       -0.58926267525637       -0.27388878001341
O           -0.30580669007267        0.55096925391262        1.62063741145754
C            1.41402734086723        1.64809124015752       -0.19869832315394
C            0.00525847029466        1.93790001513449       -0.24977119496737
C           -2.18243687120147        1.49820127475875        0.62697332331890
C            3.10040669046270       -0.03144899893691       -0.39549529069777
C            4.08538065587724        0.91741072664882       -0.34847327294732
C            2.41022687511739        2.66247640030856       -0.09932917266000
C            3.77635599164419        2.28625472820556       -0.15923375674440
C           -0.55342851996098        2.79487781490396       -1.24571117717423
C           -1.95810910809693        2.99662905280466       -1.26788164186846
C           -2.74952560378612        2.32372908696728       -0.30153359152462
C            2.08963180601472        4.00838372906198        0.14975736695607
C            4.76777388464692        3.27009171480426       -0.03597497233468
C            0.21788284477342        3.36883035280963       -2.27218125939086
C           -2.52546095933986        3.82040540425423       -2.24664407714615
H           -3.81758431517840        2.46536288398762       -0.29455632194667
C           -2.99864205532216        0.82276093374077        1.64634166671599
N            1.80404671162934        0.34681753241391       -0.27467373285252
N           -0.83676258647613        1.32799715782957        0.63471948641569
C            3.40960322920869       -1.44316242170444       -0.66623259047122
H            5.11269021487101        0.61232102969945       -0.46152457997711
C            4.42564283788061        4.58506498981484        0.17353410364944
C            3.08261983272257        4.94967241482142        0.27988461704010
H            1.05467482647209        4.29865529768917        0.24334775275940
H            5.80382057422918        2.97348744363421       -0.10078930512284
H            5.19406318479594        5.33683754470095        0.27077935551157
H            2.82144086107004        5.97893297055240        0.47338443525114
C            4.39700455956099       -2.09343088341718        0.06755042448979
C            2.76173540231217       -2.12290853496249       -1.69283256306544
C            4.05930307735865       -4.08389844676525       -1.22818811659930
C            3.08423416504506       -3.43856949069768       -1.96846750505709
C            4.71485513462485       -3.40852588309403       -0.21163243873981
H            4.88476564854585       -1.57245387748190        0.87611879705241
H            5.47413481767217       -3.90995903674786        0.36993970997499
H            4.30733613136617       -5.11260623443742       -1.44478043021128
H            2.57168173320152       -3.96077297927926       -2.76236825046196
H            2.01677763996199       -1.61637454140877       -2.28883165004424
C           -2.72150850726535        0.96015667106778        3.00262409703869
C           -4.09786464197458        0.07039186108978        1.24301330989373
C           -4.60361078142666       -0.42886340088068        3.53273708977261
C           -4.88882218481585       -0.56028012415534        2.18380209884107
C           -3.52555464800588        0.33765916831389        3.93868169188470
H           -1.87665453912482        1.54868643976915        3.32449380249336
H           -3.29702187374836        0.44018526531494        4.98778620407318
H           -5.21904593058261       -0.92736566187547        4.26640622716490
H           -5.72848395281972       -1.15864736751974        1.86183521384889
H           -4.30867610598705       -0.03653938840308        0.18960913095346
C           -0.36733888768891        4.16367052165348       -3.23105330093843
C           -1.73889123535674        4.40835750349607       -3.21234763153522
H           -3.59329651826516        3.97935409151574       -2.23425813822301
H            1.27969630266439        3.18380702000462       -2.31033366572165
H            0.24391539600847        4.59655991109396       -4.00840069913082
H           -2.18345056116161        5.04266596034670       -3.96395043088777
