77
 energy: -129.328378026794 gnorm: 0.000544849059 xtb: 6.5.1 (b24c23e)
Si           0.52110557443579        1.09471671748405       -0.18695282291078
O            2.11903749126223        1.20011483083818        0.17808482789949
C            3.26223793033445        0.56355848278429       -0.31528102318363
C            4.48450666423152        1.32875278780633        0.13124190003151
H            3.29223555966693       -0.45001744832338        0.10330090227801
C            4.44675833519774        2.71203515377310        0.23313632488970
C            5.66705188848237        0.65611043229343        0.40795889292578
C            5.57639109975637        3.41285340041943        0.61647229121747
H            3.52199278150542        3.22645236177553        0.02200447417414
C            6.79768499198992        1.35856863719523        0.78466451499241
H            5.69609340577300       -0.42210130195981        0.33024202639688
C            6.75403333967258        2.73862799089853        0.89089477497881
H            5.53770845144396        4.48908610125882        0.69956334251928
H            7.71427004078254        0.82810241083199        0.99965503717454
H            7.63630451257188        3.28600564831272        1.18925935867564
C            3.29406702631299        0.45363356409131       -1.85603278416297
C            2.24927374470949       -0.40088736690588       -2.37023407104793
H            4.26953709580608        0.05354046144462       -2.14607808570469
H            3.17352548328284        1.45316616693908       -2.28039422365854
C            1.37258608814558       -1.10270191345300       -2.78731522174337
H            0.60852126081254       -1.70413506562951       -3.18230790428856
Cl          -0.05006295540130        2.10435803864929        1.50817176546803
Cl           0.65436282151386        2.29849588388246       -1.91067314323789
O           -1.14989310442343        0.85624309095052       -0.82978278294146
O            0.47267423869138       -0.57511615233791        0.39425113766930
C           -2.35759966936766       -0.71391866293966        0.36777516542224
C           -1.51667177378142       -1.73566880475214       -0.19366402378625
C            0.63551018253516       -2.75440557337082       -0.34930911090448
C           -2.96078496429983        1.59899197449598        0.41779381892674
C           -4.00873055352258        1.33288478235048        1.25610425210495
C           -3.41280307460629       -1.02752637733653        1.27902821861944
C           -4.25579342087737        0.02127776463992        1.72796555684061
C           -2.10161978558572       -2.86544033944650       -0.85098033435520
C           -1.27816779891392       -3.95362051067760       -1.23248492530715
C            0.10094024386835       -3.88224555310434       -0.90423943956721
C           -3.59053977486252       -2.31160430129047        1.82321560761626
C           -5.29193388339217       -0.26346782244083        2.62942456002242
C           -3.45879611616226       -2.89710288412290       -1.21474066130975
C           -1.83751419853130       -5.05401345432674       -1.89046366222305
H            0.73819061290781       -4.73223142665366       -1.08512354772772
C            2.04115957157510       -2.74705587073772        0.08590205018453
N           -2.17056399474786        0.57750851093323        0.00501212116896
N           -0.15404421875452       -1.67641128228819       -0.08779751665269
C           -2.70039259011712        2.95565903126956       -0.08252540459984
H           -4.65167107761590        2.14062298903706        1.56458564299092
C           -5.47165402435961       -1.53851466635724        3.10963025923952
C           -4.60455299408614       -2.55912146875865        2.71728295017609
H           -2.92314831110114       -3.10964079772857        1.53803783340048
H           -5.93977573500367        0.54075359242836        2.94400715137086
H           -6.27054656056964       -1.75057211879756        3.80375171884830
H           -4.72675799236183       -3.55125232843006        3.12449073690687
C           -2.65011406872825        4.01335947395552        0.82202320550904
C           -2.52813416123924        3.20640122850116       -1.44021675212231
C           -2.22566344501516        5.54053104777204       -0.97763695543934
C           -2.29062427372767        4.49484704421910       -1.88168952248657
C           -2.40889136495366        5.29730404073280        0.37403234103276
H           -2.75800215745726        3.81290263668209        1.87640004096641
H           -2.35383565530159        6.10973925352346        1.08317217074980
H           -2.02720017234942        6.54370658379469       -1.32474904161738
H           -2.14427459397902        4.67729235278350       -2.93521989366603
H           -2.57493670959407        2.39654607891184       -2.15136695425871
C            2.36394125291219       -2.41100246334996        1.39886472821454
C            3.04663615344957       -3.17669841503180       -0.77572279424207
C            4.67083111340186       -2.91890841960191        0.97158762045066
C            4.35491913947379       -3.25310226602552       -0.33554559744665
C            3.67329523948249       -2.49951501431785        1.83625985085511
H            1.59184562725286       -2.08063985837433        2.07619625471767
H            3.91511651247145       -2.23464125449780        2.85429225921133
H            5.69215686205607       -2.98608999684559        1.31649911575768
H            5.13001203779830       -3.57580529581998       -1.01484787719837
H            2.80220643773400       -3.42607264090909       -1.79675667838423
C           -3.98437422499597       -3.98711168112012       -1.87097977033743
C           -3.18005748231087       -5.07629300602920       -2.19836244736887
H           -1.19733868661393       -5.88218983396458       -2.15541743120364
H           -4.09344361107986       -2.05645951382913       -0.98236871285997
H           -5.02940137779725       -3.99234319562753       -2.14088467125193
H           -3.60662425570969       -5.92841820012401       -2.70499501338605
